+ 2 8 9 tcp 40 ------- 2 0.0.8.0 1.0.2.0 0 12
- 2 8 9 tcp 40 ------- 2 0.0.8.0 1.0.2.0 0 12
r 2.002064 8 9 tcp 40 ------- 2 0.0.8.0 1.0.2.0 0 12
+ 2.002064 9 0 tcp 40 ------- 2 0.0.8.0 1.0.2.0 0 12
- 2.002064 9 0 tcp 40 ------- 2 0.0.8.0 1.0.2.0 0 12
r 2.004128 9 0 tcp 40 ------- 2 0.0.8.0 1.0.2.0 0 12
+ 2.004128 0 1 tcp 40 ------- 2 0.0.8.0 1.0.2.0 0 12
- 2.004128 0 1 tcp 40 ------- 2 0.0.8.0 1.0.2.0 0 12
r 2.006192 0 1 tcp 40 ------- 2 0.0.8.0 1.0.2.0 0 12
+ 2.006192 1 10 tcp 40 ------- 2 0.0.8.0 1.0.2.0 0 12
- 2.006192 1 10 tcp 40 ------- 2 0.0.8.0 1.0.2.0 0 12
r 2.008256 1 10 tcp 40 ------- 2 0.0.8.0 1.0.2.0 0 12
r 2.013067052 _13_ AGT  --- 12 tcp 40 [13a 3 0 800] ------- [8:0 4194306:0 27 4194306] [0 0] 1 0
s 2.013067052 _13_ AGT  --- 13 ack 40 [0 0 0 0] ------- [4194306:0 8:0 32 0] [0 0] 0 0
+ 2.015171 10 1 ack 60 ------- 2 1.0.2.0 0.0.8.0 0 13
- 2.015171 10 1 ack 60 ------- 2 1.0.2.0 0.0.8.0 0 13
r 2.017267 10 1 ack 60 ------- 2 1.0.2.0 0.0.8.0 0 13
+ 2.017267 1 0 ack 60 ------- 2 1.0.2.0 0.0.8.0 0 13
- 2.017267 1 0 ack 60 ------- 2 1.0.2.0 0.0.8.0 0 13
r 2.019363 1 0 ack 60 ------- 2 1.0.2.0 0.0.8.0 0 13
+ 2.019363 0 9 ack 60 ------- 2 1.0.2.0 0.0.8.0 0 13
- 2.019363 0 9 ack 60 ------- 2 1.0.2.0 0.0.8.0 0 13
r 2.021459 0 9 ack 60 ------- 2 1.0.2.0 0.0.8.0 0 13
+ 2.021459 9 8 ack 60 ------- 2 1.0.2.0 0.0.8.0 0 13
- 2.021459 9 8 ack 60 ------- 2 1.0.2.0 0.0.8.0 0 13
r 2.023555 9 8 ack 60 ------- 2 1.0.2.0 0.0.8.0 0 13
+ 2.023555 8 9 tcp 1040 ------- 2 0.0.8.0 1.0.2.0 1 14
- 2.023555 8 9 tcp 1040 ------- 2 0.0.8.0 1.0.2.0 1 14
+ 2.023555 8 9 tcp 1040 ------- 2 0.0.8.0 1.0.2.0 2 15
- 2.025219 8 9 tcp 1040 ------- 2 0.0.8.0 1.0.2.0 2 15
r 2.027219 8 9 tcp 1040 ------- 2 0.0.8.0 1.0.2.0 1 14
+ 2.027219 9 0 tcp 1040 ------- 2 0.0.8.0 1.0.2.0 1 14
- 2.027219 9 0 tcp 1040 ------- 2 0.0.8.0 1.0.2.0 1 14
r 2.028883 8 9 tcp 1040 ------- 2 0.0.8.0 1.0.2.0 2 15
+ 2.028883 9 0 tcp 1040 ------- 2 0.0.8.0 1.0.2.0 2 15
- 2.028883 9 0 tcp 1040 ------- 2 0.0.8.0 1.0.2.0 2 15
r 2.030883 9 0 tcp 1040 ------- 2 0.0.8.0 1.0.2.0 1 14
+ 2.030883 0 1 tcp 1040 ------- 2 0.0.8.0 1.0.2.0 1 14
- 2.030883 0 1 tcp 1040 ------- 2 0.0.8.0 1.0.2.0 1 14
r 2.032547 9 0 tcp 1040 ------- 2 0.0.8.0 1.0.2.0 2 15
+ 2.032547 0 1 tcp 1040 ------- 2 0.0.8.0 1.0.2.0 2 15
- 2.032547 0 1 tcp 1040 ------- 2 0.0.8.0 1.0.2.0 2 15
r 2.034547 0 1 tcp 1040 ------- 2 0.0.8.0 1.0.2.0 1 14
+ 2.034547 1 10 tcp 1040 ------- 2 0.0.8.0 1.0.2.0 1 14
- 2.034547 1 10 tcp 1040 ------- 2 0.0.8.0 1.0.2.0 1 14
r 2.036211 0 1 tcp 1040 ------- 2 0.0.8.0 1.0.2.0 2 15
+ 2.036211 1 10 tcp 1040 ------- 2 0.0.8.0 1.0.2.0 2 15
- 2.036211 1 10 tcp 1040 ------- 2 0.0.8.0 1.0.2.0 2 15
r 2.038211 1 10 tcp 1040 ------- 2 0.0.8.0 1.0.2.0 1 14
r 2.039875 1 10 tcp 1040 ------- 2 0.0.8.0 1.0.2.0 2 15
r 2.047891097 _13_ AGT  --- 14 tcp 1040 [13a 3 0 800] ------- [8:0 4194306:0 27 4194306] [1 0] 1 0
s 2.047891097 _13_ AGT  --- 16 ack 40 [0 0 0 0] ------- [4194306:0 8:0 32 0] [1 0] 0 0
+ 2.050035 10 1 ack 60 ------- 2 1.0.2.0 0.0.8.0 1 16
- 2.050035 10 1 ack 60 ------- 2 1.0.2.0 0.0.8.0 1 16
r 2.052131 10 1 ack 60 ------- 2 1.0.2.0 0.0.8.0 1 16
+ 2.052131 1 0 ack 60 ------- 2 1.0.2.0 0.0.8.0 1 16
- 2.052131 1 0 ack 60 ------- 2 1.0.2.0 0.0.8.0 1 16
r 2.054227 1 0 ack 60 ------- 2 1.0.2.0 0.0.8.0 1 16
+ 2.054227 0 9 ack 60 ------- 2 1.0.2.0 0.0.8.0 1 16
- 2.054227 0 9 ack 60 ------- 2 1.0.2.0 0.0.8.0 1 16
r 2.056323 0 9 ack 60 ------- 2 1.0.2.0 0.0.8.0 1 16
+ 2.056323 9 8 ack 60 ------- 2 1.0.2.0 0.0.8.0 1 16
- 2.056323 9 8 ack 60 ------- 2 1.0.2.0 0.0.8.0 1 16
r 2.058419 9 8 ack 60 ------- 2 1.0.2.0 0.0.8.0 1 16
+ 2.058419 8 9 tcp 1040 ------- 2 0.0.8.0 1.0.2.0 3 17
- 2.058419 8 9 tcp 1040 ------- 2 0.0.8.0 1.0.2.0 3 17
+ 2.058419 8 9 tcp 1040 ------- 2 0.0.8.0 1.0.2.0 4 18
r 2.059919142 _13_ AGT  --- 15 tcp 1040 [13a 3 0 800] ------- [8:0 4194306:0 27 4194306] [2 0] 1 0
s 2.059919142 _13_ AGT  --- 19 ack 40 [0 0 0 0] ------- [4194306:0 8:0 32 0] [2 0] 0 0
- 2.060083 8 9 tcp 1040 ------- 2 0.0.8.0 1.0.2.0 4 18
+ 2.062043 10 1 ack 60 ------- 2 1.0.2.0 0.0.8.0 2 19
- 2.062043 10 1 ack 60 ------- 2 1.0.2.0 0.0.8.0 2 19
r 2.062083 8 9 tcp 1040 ------- 2 0.0.8.0 1.0.2.0 3 17
+ 2.062083 9 0 tcp 1040 ------- 2 0.0.8.0 1.0.2.0 3 17
- 2.062083 9 0 tcp 1040 ------- 2 0.0.8.0 1.0.2.0 3 17
r 2.063747 8 9 tcp 1040 ------- 2 0.0.8.0 1.0.2.0 4 18
+ 2.063747 9 0 tcp 1040 ------- 2 0.0.8.0 1.0.2.0 4 18
- 2.063747 9 0 tcp 1040 ------- 2 0.0.8.0 1.0.2.0 4 18
r 2.064139 10 1 ack 60 ------- 2 1.0.2.0 0.0.8.0 2 19
+ 2.064139 1 0 ack 60 ------- 2 1.0.2.0 0.0.8.0 2 19
- 2.064139 1 0 ack 60 ------- 2 1.0.2.0 0.0.8.0 2 19
r 2.065747 9 0 tcp 1040 ------- 2 0.0.8.0 1.0.2.0 3 17
+ 2.065747 0 1 tcp 1040 ------- 2 0.0.8.0 1.0.2.0 3 17
- 2.065747 0 1 tcp 1040 ------- 2 0.0.8.0 1.0.2.0 3 17
r 2.066235 1 0 ack 60 ------- 2 1.0.2.0 0.0.8.0 2 19
+ 2.066235 0 9 ack 60 ------- 2 1.0.2.0 0.0.8.0 2 19
- 2.066235 0 9 ack 60 ------- 2 1.0.2.0 0.0.8.0 2 19
r 2.067411 9 0 tcp 1040 ------- 2 0.0.8.0 1.0.2.0 4 18
+ 2.067411 0 1 tcp 1040 ------- 2 0.0.8.0 1.0.2.0 4 18
- 2.067411 0 1 tcp 1040 ------- 2 0.0.8.0 1.0.2.0 4 18
r 2.068331 0 9 ack 60 ------- 2 1.0.2.0 0.0.8.0 2 19
+ 2.068331 9 8 ack 60 ------- 2 1.0.2.0 0.0.8.0 2 19
- 2.068331 9 8 ack 60 ------- 2 1.0.2.0 0.0.8.0 2 19
r 2.069411 0 1 tcp 1040 ------- 2 0.0.8.0 1.0.2.0 3 17
+ 2.069411 1 10 tcp 1040 ------- 2 0.0.8.0 1.0.2.0 3 17
- 2.069411 1 10 tcp 1040 ------- 2 0.0.8.0 1.0.2.0 3 17
r 2.070427 9 8 ack 60 ------- 2 1.0.2.0 0.0.8.0 2 19
+ 2.070427 8 9 tcp 1040 ------- 2 0.0.8.0 1.0.2.0 5 20
- 2.070427 8 9 tcp 1040 ------- 2 0.0.8.0 1.0.2.0 5 20
+ 2.070427 8 9 tcp 1040 ------- 2 0.0.8.0 1.0.2.0 6 21
r 2.071075 0 1 tcp 1040 ------- 2 0.0.8.0 1.0.2.0 4 18
+ 2.071075 1 10 tcp 1040 ------- 2 0.0.8.0 1.0.2.0 4 18
- 2.071075 1 10 tcp 1040 ------- 2 0.0.8.0 1.0.2.0 4 18
- 2.072091 8 9 tcp 1040 ------- 2 0.0.8.0 1.0.2.0 6 21
r 2.073075 1 10 tcp 1040 ------- 2 0.0.8.0 1.0.2.0 3 17
r 2.074091 8 9 tcp 1040 ------- 2 0.0.8.0 1.0.2.0 5 20
+ 2.074091 9 0 tcp 1040 ------- 2 0.0.8.0 1.0.2.0 5 20
- 2.074091 9 0 tcp 1040 ------- 2 0.0.8.0 1.0.2.0 5 20
r 2.074739 1 10 tcp 1040 ------- 2 0.0.8.0 1.0.2.0 4 18
r 2.075755 8 9 tcp 1040 ------- 2 0.0.8.0 1.0.2.0 6 21
+ 2.075755 9 0 tcp 1040 ------- 2 0.0.8.0 1.0.2.0 6 21
- 2.075755 9 0 tcp 1040 ------- 2 0.0.8.0 1.0.2.0 6 21
r 2.077755 9 0 tcp 1040 ------- 2 0.0.8.0 1.0.2.0 5 20
+ 2.077755 0 1 tcp 1040 ------- 2 0.0.8.0 1.0.2.0 5 20
- 2.077755 0 1 tcp 1040 ------- 2 0.0.8.0 1.0.2.0 5 20
r 2.079419 9 0 tcp 1040 ------- 2 0.0.8.0 1.0.2.0 6 21
+ 2.079419 0 1 tcp 1040 ------- 2 0.0.8.0 1.0.2.0 6 21
- 2.079419 0 1 tcp 1040 ------- 2 0.0.8.0 1.0.2.0 6 21
r 2.081419 0 1 tcp 1040 ------- 2 0.0.8.0 1.0.2.0 5 20
+ 2.081419 1 10 tcp 1040 ------- 2 0.0.8.0 1.0.2.0 5 20
- 2.081419 1 10 tcp 1040 ------- 2 0.0.8.0 1.0.2.0 5 20
r 2.083055142 _13_ AGT  --- 17 tcp 1040 [13a 3 0 800] ------- [8:0 4194306:0 27 4194306] [3 0] 1 0
s 2.083055142 _13_ AGT  --- 22 ack 40 [0 0 0 0] ------- [4194306:0 8:0 32 0] [3 0] 0 0
r 2.083083 0 1 tcp 1040 ------- 2 0.0.8.0 1.0.2.0 6 21
+ 2.083083 1 10 tcp 1040 ------- 2 0.0.8.0 1.0.2.0 6 21
- 2.083083 1 10 tcp 1040 ------- 2 0.0.8.0 1.0.2.0 6 21
r 2.085083 1 10 tcp 1040 ------- 2 0.0.8.0 1.0.2.0 5 20
r 2.086747 1 10 tcp 1040 ------- 2 0.0.8.0 1.0.2.0 6 21
r 2.093199171 _13_ AGT  --- 18 tcp 1040 [13a 3 0 800] ------- [8:0 4194306:0 27 4194306] [4 0] 1 0
s 2.093199171 _13_ AGT  --- 23 ack 40 [0 0 0 0] ------- [4194306:0 8:0 32 0] [4 0] 0 0
s 2.100000000 _13_ AGT  --- 24 tcp 40 [0 0 0 0] ------- [4194306:1 6:0 32 0] [0 0] 0 0
r 2.103183201 _13_ AGT  --- 20 tcp 1040 [13a 3 0 800] ------- [8:0 4194306:0 27 4194306] [5 0] 1 0
s 2.103183201 _13_ AGT  --- 25 ack 40 [0 0 0 0] ------- [4194306:0 8:0 32 0] [5 0] 0 0
r 2.113913231 _13_ AGT  --- 21 tcp 1040 [13a 3 0 800] ------- [8:0 4194306:0 27 4194306] [6 0] 1 0
s 2.113913231 _13_ AGT  --- 26 ack 40 [0 0 0 0] ------- [4194306:0 8:0 32 0] [6 0] 0 0
+ 2.116757 10 1 ack 60 ------- 2 1.0.2.0 0.0.8.0 3 22
- 2.116757 10 1 ack 60 ------- 2 1.0.2.0 0.0.8.0 3 22
+ 2.118801 10 1 ack 60 ------- 2 1.0.2.0 0.0.8.0 4 23
- 2.118801 10 1 ack 60 ------- 2 1.0.2.0 0.0.8.0 4 23
r 2.118853 10 1 ack 60 ------- 2 1.0.2.0 0.0.8.0 3 22
+ 2.118853 1 0 ack 60 ------- 2 1.0.2.0 0.0.8.0 3 22
- 2.118853 1 0 ack 60 ------- 2 1.0.2.0 0.0.8.0 3 22
r 2.120897 10 1 ack 60 ------- 2 1.0.2.0 0.0.8.0 4 23
+ 2.120897 1 0 ack 60 ------- 2 1.0.2.0 0.0.8.0 4 23
- 2.120897 1 0 ack 60 ------- 2 1.0.2.0 0.0.8.0 4 23
r 2.120949 1 0 ack 60 ------- 2 1.0.2.0 0.0.8.0 3 22
+ 2.120949 0 9 ack 60 ------- 2 1.0.2.0 0.0.8.0 3 22
- 2.120949 0 9 ack 60 ------- 2 1.0.2.0 0.0.8.0 3 22
+ 2.121305 10 1 tcp 60 ------- 2 1.0.2.1 0.0.6.0 0 24
- 2.121305 10 1 tcp 60 ------- 2 1.0.2.1 0.0.6.0 0 24
r 2.122993 1 0 ack 60 ------- 2 1.0.2.0 0.0.8.0 4 23
+ 2.122993 0 9 ack 60 ------- 2 1.0.2.0 0.0.8.0 4 23
- 2.122993 0 9 ack 60 ------- 2 1.0.2.0 0.0.8.0 4 23
r 2.123045 0 9 ack 60 ------- 2 1.0.2.0 0.0.8.0 3 22
+ 2.123045 9 8 ack 60 ------- 2 1.0.2.0 0.0.8.0 3 22
- 2.123045 9 8 ack 60 ------- 2 1.0.2.0 0.0.8.0 3 22
r 2.123401 10 1 tcp 60 ------- 2 1.0.2.1 0.0.6.0 0 24
+ 2.123401 1 2 tcp 60 ------- 2 1.0.2.1 0.0.6.0 0 24
- 2.123401 1 2 tcp 60 ------- 2 1.0.2.1 0.0.6.0 0 24
+ 2.123889 10 1 ack 60 ------- 2 1.0.2.0 0.0.8.0 5 25
- 2.123889 10 1 ack 60 ------- 2 1.0.2.0 0.0.8.0 5 25
r 2.125089 0 9 ack 60 ------- 2 1.0.2.0 0.0.8.0 4 23
+ 2.125089 9 8 ack 60 ------- 2 1.0.2.0 0.0.8.0 4 23
- 2.125089 9 8 ack 60 ------- 2 1.0.2.0 0.0.8.0 4 23
r 2.125141 9 8 ack 60 ------- 2 1.0.2.0 0.0.8.0 3 22
+ 2.125141 8 9 tcp 1040 ------- 2 0.0.8.0 1.0.2.0 7 27
- 2.125141 8 9 tcp 1040 ------- 2 0.0.8.0 1.0.2.0 7 27
+ 2.125141 8 9 tcp 1040 ------- 2 0.0.8.0 1.0.2.0 8 28
r 2.125497 1 2 tcp 60 ------- 2 1.0.2.1 0.0.6.0 0 24
+ 2.125497 2 3 tcp 60 ------- 2 1.0.2.1 0.0.6.0 0 24
- 2.125497 2 3 tcp 60 ------- 2 1.0.2.1 0.0.6.0 0 24
r 2.125985 10 1 ack 60 ------- 2 1.0.2.0 0.0.8.0 5 25
+ 2.125985 1 0 ack 60 ------- 2 1.0.2.0 0.0.8.0 5 25
- 2.125985 1 0 ack 60 ------- 2 1.0.2.0 0.0.8.0 5 25
+ 2.126293 10 1 ack 60 ------- 2 1.0.2.0 0.0.8.0 6 26
- 2.126293 10 1 ack 60 ------- 2 1.0.2.0 0.0.8.0 6 26
- 2.126805 8 9 tcp 1040 ------- 2 0.0.8.0 1.0.2.0 8 28
r 2.127185 9 8 ack 60 ------- 2 1.0.2.0 0.0.8.0 4 23
+ 2.127185 8 9 tcp 1040 ------- 2 0.0.8.0 1.0.2.0 9 29
+ 2.127185 8 9 tcp 1040 ------- 2 0.0.8.0 1.0.2.0 10 30
r 2.127593 2 3 tcp 60 ------- 2 1.0.2.1 0.0.6.0 0 24
+ 2.127593 3 4 tcp 60 ------- 2 1.0.2.1 0.0.6.0 0 24
- 2.127593 3 4 tcp 60 ------- 2 1.0.2.1 0.0.6.0 0 24
r 2.128081 1 0 ack 60 ------- 2 1.0.2.0 0.0.8.0 5 25
+ 2.128081 0 9 ack 60 ------- 2 1.0.2.0 0.0.8.0 5 25
- 2.128081 0 9 ack 60 ------- 2 1.0.2.0 0.0.8.0 5 25
r 2.128389 10 1 ack 60 ------- 2 1.0.2.0 0.0.8.0 6 26
+ 2.128389 1 0 ack 60 ------- 2 1.0.2.0 0.0.8.0 6 26
- 2.128389 1 0 ack 60 ------- 2 1.0.2.0 0.0.8.0 6 26
- 2.128469 8 9 tcp 1040 ------- 2 0.0.8.0 1.0.2.0 9 29
r 2.128805 8 9 tcp 1040 ------- 2 0.0.8.0 1.0.2.0 7 27
+ 2.128805 9 0 tcp 1040 ------- 2 0.0.8.0 1.0.2.0 7 27
- 2.128805 9 0 tcp 1040 ------- 2 0.0.8.0 1.0.2.0 7 27
r 2.129689 3 4 tcp 60 ------- 2 1.0.2.1 0.0.6.0 0 24
+ 2.129689 4 5 tcp 60 ------- 2 1.0.2.1 0.0.6.0 0 24
- 2.129689 4 5 tcp 60 ------- 2 1.0.2.1 0.0.6.0 0 24
- 2.130133 8 9 tcp 1040 ------- 2 0.0.8.0 1.0.2.0 10 30
r 2.130177 0 9 ack 60 ------- 2 1.0.2.0 0.0.8.0 5 25
+ 2.130177 9 8 ack 60 ------- 2 1.0.2.0 0.0.8.0 5 25
- 2.130177 9 8 ack 60 ------- 2 1.0.2.0 0.0.8.0 5 25
r 2.130469 8 9 tcp 1040 ------- 2 0.0.8.0 1.0.2.0 8 28
+ 2.130469 9 0 tcp 1040 ------- 2 0.0.8.0 1.0.2.0 8 28
- 2.130469 9 0 tcp 1040 ------- 2 0.0.8.0 1.0.2.0 8 28
r 2.130485 1 0 ack 60 ------- 2 1.0.2.0 0.0.8.0 6 26
+ 2.130485 0 9 ack 60 ------- 2 1.0.2.0 0.0.8.0 6 26
- 2.130485 0 9 ack 60 ------- 2 1.0.2.0 0.0.8.0 6 26
r 2.131785 4 5 tcp 60 ------- 2 1.0.2.1 0.0.6.0 0 24
+ 2.131785 5 6 tcp 60 ------- 2 1.0.2.1 0.0.6.0 0 24
- 2.131785 5 6 tcp 60 ------- 2 1.0.2.1 0.0.6.0 0 24
r 2.132133 8 9 tcp 1040 ------- 2 0.0.8.0 1.0.2.0 9 29
+ 2.132133 9 0 tcp 1040 ------- 2 0.0.8.0 1.0.2.0 9 29
- 2.132133 9 0 tcp 1040 ------- 2 0.0.8.0 1.0.2.0 9 29
r 2.132273 9 8 ack 60 ------- 2 1.0.2.0 0.0.8.0 5 25
+ 2.132273 8 9 tcp 1040 ------- 2 0.0.8.0 1.0.2.0 11 31
- 2.132273 8 9 tcp 1040 ------- 2 0.0.8.0 1.0.2.0 11 31
+ 2.132273 8 9 tcp 1040 ------- 2 0.0.8.0 1.0.2.0 12 32
r 2.132469 9 0 tcp 1040 ------- 2 0.0.8.0 1.0.2.0 7 27
+ 2.132469 0 1 tcp 1040 ------- 2 0.0.8.0 1.0.2.0 7 27
- 2.132469 0 1 tcp 1040 ------- 2 0.0.8.0 1.0.2.0 7 27
r 2.132581 0 9 ack 60 ------- 2 1.0.2.0 0.0.8.0 6 26
+ 2.132581 9 8 ack 60 ------- 2 1.0.2.0 0.0.8.0 6 26
- 2.132581 9 8 ack 60 ------- 2 1.0.2.0 0.0.8.0 6 26
r 2.133797 8 9 tcp 1040 ------- 2 0.0.8.0 1.0.2.0 10 30
+ 2.133797 9 0 tcp 1040 ------- 2 0.0.8.0 1.0.2.0 10 30
- 2.133797 9 0 tcp 1040 ------- 2 0.0.8.0 1.0.2.0 10 30
r 2.133881 5 6 tcp 60 ------- 2 1.0.2.1 0.0.6.0 0 24
+ 2.133881 6 7 ack 40 ------- 2 0.0.6.0 1.0.2.1 0 33
- 2.133881 6 7 ack 40 ------- 2 0.0.6.0 1.0.2.1 0 33
- 2.133937 8 9 tcp 1040 ------- 2 0.0.8.0 1.0.2.0 12 32
r 2.134133 9 0 tcp 1040 ------- 2 0.0.8.0 1.0.2.0 8 28
+ 2.134133 0 1 tcp 1040 ------- 2 0.0.8.0 1.0.2.0 8 28
- 2.134133 0 1 tcp 1040 ------- 2 0.0.8.0 1.0.2.0 8 28
r 2.134677 9 8 ack 60 ------- 2 1.0.2.0 0.0.8.0 6 26
+ 2.134677 8 9 tcp 1040 ------- 2 0.0.8.0 1.0.2.0 13 34
+ 2.134677 8 9 tcp 1040 ------- 2 0.0.8.0 1.0.2.0 14 35
- 2.135601 8 9 tcp 1040 ------- 2 0.0.8.0 1.0.2.0 13 34
r 2.135797 9 0 tcp 1040 ------- 2 0.0.8.0 1.0.2.0 9 29
+ 2.135797 0 1 tcp 1040 ------- 2 0.0.8.0 1.0.2.0 9 29
- 2.135797 0 1 tcp 1040 ------- 2 0.0.8.0 1.0.2.0 9 29
r 2.135937 8 9 tcp 1040 ------- 2 0.0.8.0 1.0.2.0 11 31
+ 2.135937 9 0 tcp 1040 ------- 2 0.0.8.0 1.0.2.0 11 31
- 2.135937 9 0 tcp 1040 ------- 2 0.0.8.0 1.0.2.0 11 31
r 2.135945 6 7 ack 40 ------- 2 0.0.6.0 1.0.2.1 0 33
+ 2.135945 7 8 ack 40 ------- 2 0.0.6.0 1.0.2.1 0 33
- 2.135945 7 8 ack 40 ------- 2 0.0.6.0 1.0.2.1 0 33
r 2.136133 0 1 tcp 1040 ------- 2 0.0.8.0 1.0.2.0 7 27
+ 2.136133 1 10 tcp 1040 ------- 2 0.0.8.0 1.0.2.0 7 27
- 2.136133 1 10 tcp 1040 ------- 2 0.0.8.0 1.0.2.0 7 27
- 2.137265 8 9 tcp 1040 ------- 2 0.0.8.0 1.0.2.0 14 35
r 2.137461 9 0 tcp 1040 ------- 2 0.0.8.0 1.0.2.0 10 30
+ 2.137461 0 1 tcp 1040 ------- 2 0.0.8.0 1.0.2.0 10 30
- 2.137461 0 1 tcp 1040 ------- 2 0.0.8.0 1.0.2.0 10 30
r 2.137601 8 9 tcp 1040 ------- 2 0.0.8.0 1.0.2.0 12 32
+ 2.137601 9 0 tcp 1040 ------- 2 0.0.8.0 1.0.2.0 12 32
- 2.137601 9 0 tcp 1040 ------- 2 0.0.8.0 1.0.2.0 12 32
r 2.137797 0 1 tcp 1040 ------- 2 0.0.8.0 1.0.2.0 8 28
+ 2.137797 1 10 tcp 1040 ------- 2 0.0.8.0 1.0.2.0 8 28
- 2.137797 1 10 tcp 1040 ------- 2 0.0.8.0 1.0.2.0 8 28
r 2.138009 7 8 ack 40 ------- 2 0.0.6.0 1.0.2.1 0 33
+ 2.138009 8 9 ack 40 ------- 2 0.0.6.0 1.0.2.1 0 33
- 2.138929 8 9 ack 40 ------- 2 0.0.6.0 1.0.2.1 0 33
r 2.139265 8 9 tcp 1040 ------- 2 0.0.8.0 1.0.2.0 13 34
+ 2.139265 9 0 tcp 1040 ------- 2 0.0.8.0 1.0.2.0 13 34
- 2.139265 9 0 tcp 1040 ------- 2 0.0.8.0 1.0.2.0 13 34
r 2.139461 0 1 tcp 1040 ------- 2 0.0.8.0 1.0.2.0 9 29
+ 2.139461 1 10 tcp 1040 ------- 2 0.0.8.0 1.0.2.0 9 29
- 2.139461 1 10 tcp 1040 ------- 2 0.0.8.0 1.0.2.0 9 29
r 2.139601 9 0 tcp 1040 ------- 2 0.0.8.0 1.0.2.0 11 31
+ 2.139601 0 1 tcp 1040 ------- 2 0.0.8.0 1.0.2.0 11 31
- 2.139601 0 1 tcp 1040 ------- 2 0.0.8.0 1.0.2.0 11 31
r 2.139797 1 10 tcp 1040 ------- 2 0.0.8.0 1.0.2.0 7 27
r 2.140929 8 9 tcp 1040 ------- 2 0.0.8.0 1.0.2.0 14 35
+ 2.140929 9 0 tcp 1040 ------- 2 0.0.8.0 1.0.2.0 14 35
- 2.140929 9 0 tcp 1040 ------- 2 0.0.8.0 1.0.2.0 14 35
r 2.140993 8 9 ack 40 ------- 2 0.0.6.0 1.0.2.1 0 33
+ 2.140993 9 0 ack 40 ------- 2 0.0.6.0 1.0.2.1 0 33
r 2.141125 0 1 tcp 1040 ------- 2 0.0.8.0 1.0.2.0 10 30
+ 2.141125 1 10 tcp 1040 ------- 2 0.0.8.0 1.0.2.0 10 30
- 2.141125 1 10 tcp 1040 ------- 2 0.0.8.0 1.0.2.0 10 30
r 2.141265 9 0 tcp 1040 ------- 2 0.0.8.0 1.0.2.0 12 32
+ 2.141265 0 1 tcp 1040 ------- 2 0.0.8.0 1.0.2.0 12 32
- 2.141265 0 1 tcp 1040 ------- 2 0.0.8.0 1.0.2.0 12 32
r 2.141461 1 10 tcp 1040 ------- 2 0.0.8.0 1.0.2.0 8 28
- 2.142593 9 0 ack 40 ------- 2 0.0.6.0 1.0.2.1 0 33
r 2.142929 9 0 tcp 1040 ------- 2 0.0.8.0 1.0.2.0 13 34
+ 2.142929 0 1 tcp 1040 ------- 2 0.0.8.0 1.0.2.0 13 34
- 2.142929 0 1 tcp 1040 ------- 2 0.0.8.0 1.0.2.0 13 34
r 2.143125 1 10 tcp 1040 ------- 2 0.0.8.0 1.0.2.0 9 29
r 2.143265 0 1 tcp 1040 ------- 2 0.0.8.0 1.0.2.0 11 31
+ 2.143265 1 10 tcp 1040 ------- 2 0.0.8.0 1.0.2.0 11 31
- 2.143265 1 10 tcp 1040 ------- 2 0.0.8.0 1.0.2.0 11 31
r 2.144593 9 0 tcp 1040 ------- 2 0.0.8.0 1.0.2.0 14 35
+ 2.144593 0 1 tcp 1040 ------- 2 0.0.8.0 1.0.2.0 14 35
- 2.144593 0 1 tcp 1040 ------- 2 0.0.8.0 1.0.2.0 14 35
r 2.144657 9 0 ack 40 ------- 2 0.0.6.0 1.0.2.1 0 33
+ 2.144657 0 1 ack 40 ------- 2 0.0.6.0 1.0.2.1 0 33
r 2.144789 1 10 tcp 1040 ------- 2 0.0.8.0 1.0.2.0 10 30
r 2.144929 0 1 tcp 1040 ------- 2 0.0.8.0 1.0.2.0 12 32
+ 2.144929 1 10 tcp 1040 ------- 2 0.0.8.0 1.0.2.0 12 32
- 2.144929 1 10 tcp 1040 ------- 2 0.0.8.0 1.0.2.0 12 32
- 2.146257 0 1 ack 40 ------- 2 0.0.6.0 1.0.2.1 0 33
r 2.146593 0 1 tcp 1040 ------- 2 0.0.8.0 1.0.2.0 13 34
+ 2.146593 1 10 tcp 1040 ------- 2 0.0.8.0 1.0.2.0 13 34
- 2.146593 1 10 tcp 1040 ------- 2 0.0.8.0 1.0.2.0 13 34
r 2.146929 1 10 tcp 1040 ------- 2 0.0.8.0 1.0.2.0 11 31
r 2.148257 0 1 tcp 1040 ------- 2 0.0.8.0 1.0.2.0 14 35
+ 2.148257 1 10 tcp 1040 ------- 2 0.0.8.0 1.0.2.0 14 35
- 2.148257 1 10 tcp 1040 ------- 2 0.0.8.0 1.0.2.0 14 35
r 2.148321 0 1 ack 40 ------- 2 0.0.6.0 1.0.2.1 0 33
+ 2.148321 1 10 ack 40 ------- 2 0.0.6.0 1.0.2.1 0 33
r 2.148593 1 10 tcp 1040 ------- 2 0.0.8.0 1.0.2.0 12 32
r 2.149377276 _13_ AGT  --- 27 tcp 1040 [13a 3 0 800] ------- [8:0 4194306:0 27 4194306] [7 0] 1 0
s 2.149377276 _13_ AGT  --- 36 ack 40 [0 0 0 0] ------- [4194306:0 8:0 32 0] [7 0] 0 0
- 2.149921 1 10 ack 40 ------- 2 0.0.6.0 1.0.2.1 0 33
r 2.150257 1 10 tcp 1040 ------- 2 0.0.8.0 1.0.2.0 13 34
+ 2.151421 10 1 ack 60 ------- 2 1.0.2.0 0.0.8.0 7 36
- 2.151421 10 1 ack 60 ------- 2 1.0.2.0 0.0.8.0 7 36
r 2.151921 1 10 tcp 1040 ------- 2 0.0.8.0 1.0.2.0 14 35
r 2.151985 1 10 ack 40 ------- 2 0.0.6.0 1.0.2.1 0 33
r 2.153517 10 1 ack 60 ------- 2 1.0.2.0 0.0.8.0 7 36
+ 2.153517 1 0 ack 60 ------- 2 1.0.2.0 0.0.8.0 7 36
- 2.153517 1 0 ack 60 ------- 2 1.0.2.0 0.0.8.0 7 36
r 2.155613 1 0 ack 60 ------- 2 1.0.2.0 0.0.8.0 7 36
+ 2.155613 0 9 ack 60 ------- 2 1.0.2.0 0.0.8.0 7 36
- 2.155613 0 9 ack 60 ------- 2 1.0.2.0 0.0.8.0 7 36
r 2.157709 0 9 ack 60 ------- 2 1.0.2.0 0.0.8.0 7 36
+ 2.157709 9 8 ack 60 ------- 2 1.0.2.0 0.0.8.0 7 36
- 2.157709 9 8 ack 60 ------- 2 1.0.2.0 0.0.8.0 7 36
r 2.159805 9 8 ack 60 ------- 2 1.0.2.0 0.0.8.0 7 36
+ 2.159805 8 9 tcp 1040 ------- 2 0.0.8.0 1.0.2.0 15 37
- 2.159805 8 9 tcp 1040 ------- 2 0.0.8.0 1.0.2.0 15 37
+ 2.159805 8 9 tcp 1040 ------- 2 0.0.8.0 1.0.2.0 16 38
r 2.161465321 _13_ AGT  --- 28 tcp 1040 [13a 3 0 800] ------- [8:0 4194306:0 27 4194306] [8 0] 1 0
s 2.161465321 _13_ AGT  --- 39 ack 40 [0 0 0 0] ------- [4194306:0 8:0 32 0] [8 0] 0 0
- 2.161469 8 9 tcp 1040 ------- 2 0.0.8.0 1.0.2.0 16 38
r 2.163469 8 9 tcp 1040 ------- 2 0.0.8.0 1.0.2.0 15 37
+ 2.163469 9 0 tcp 1040 ------- 2 0.0.8.0 1.0.2.0 15 37
- 2.163469 9 0 tcp 1040 ------- 2 0.0.8.0 1.0.2.0 15 37
+ 2.163469 10 1 ack 60 ------- 2 1.0.2.0 0.0.8.0 8 39
- 2.163469 10 1 ack 60 ------- 2 1.0.2.0 0.0.8.0 8 39
r 2.165133 8 9 tcp 1040 ------- 2 0.0.8.0 1.0.2.0 16 38
+ 2.165133 9 0 tcp 1040 ------- 2 0.0.8.0 1.0.2.0 16 38
- 2.165133 9 0 tcp 1040 ------- 2 0.0.8.0 1.0.2.0 16 38
r 2.165565 10 1 ack 60 ------- 2 1.0.2.0 0.0.8.0 8 39
+ 2.165565 1 0 ack 60 ------- 2 1.0.2.0 0.0.8.0 8 39
- 2.165565 1 0 ack 60 ------- 2 1.0.2.0 0.0.8.0 8 39
r 2.167133 9 0 tcp 1040 ------- 2 0.0.8.0 1.0.2.0 15 37
+ 2.167133 0 1 tcp 1040 ------- 2 0.0.8.0 1.0.2.0 15 37
- 2.167133 0 1 tcp 1040 ------- 2 0.0.8.0 1.0.2.0 15 37
r 2.167661 1 0 ack 60 ------- 2 1.0.2.0 0.0.8.0 8 39
+ 2.167661 0 9 ack 60 ------- 2 1.0.2.0 0.0.8.0 8 39
- 2.167661 0 9 ack 60 ------- 2 1.0.2.0 0.0.8.0 8 39
r 2.168797 9 0 tcp 1040 ------- 2 0.0.8.0 1.0.2.0 16 38
+ 2.168797 0 1 tcp 1040 ------- 2 0.0.8.0 1.0.2.0 16 38
- 2.168797 0 1 tcp 1040 ------- 2 0.0.8.0 1.0.2.0 16 38
r 2.169757 0 9 ack 60 ------- 2 1.0.2.0 0.0.8.0 8 39
+ 2.169757 9 8 ack 60 ------- 2 1.0.2.0 0.0.8.0 8 39
- 2.169757 9 8 ack 60 ------- 2 1.0.2.0 0.0.8.0 8 39
r 2.170797 0 1 tcp 1040 ------- 2 0.0.8.0 1.0.2.0 15 37
+ 2.170797 1 10 tcp 1040 ------- 2 0.0.8.0 1.0.2.0 15 37
- 2.170797 1 10 tcp 1040 ------- 2 0.0.8.0 1.0.2.0 15 37
r 2.171853 9 8 ack 60 ------- 2 1.0.2.0 0.0.8.0 8 39
+ 2.171853 8 9 tcp 1040 ------- 2 0.0.8.0 1.0.2.0 17 40
- 2.171853 8 9 tcp 1040 ------- 2 0.0.8.0 1.0.2.0 17 40
+ 2.171853 8 9 tcp 1040 ------- 2 0.0.8.0 1.0.2.0 18 41
r 2.172461 0 1 tcp 1040 ------- 2 0.0.8.0 1.0.2.0 16 38
+ 2.172461 1 10 tcp 1040 ------- 2 0.0.8.0 1.0.2.0 16 38
- 2.172461 1 10 tcp 1040 ------- 2 0.0.8.0 1.0.2.0 16 38
- 2.173517 8 9 tcp 1040 ------- 2 0.0.8.0 1.0.2.0 18 41
r 2.173653365 _13_ AGT  --- 29 tcp 1040 [13a 3 0 800] ------- [8:0 4194306:0 27 4194306] [9 0] 1 0
s 2.173653365 _13_ AGT  --- 42 ack 40 [0 0 0 0] ------- [4194306:0 8:0 32 0] [9 0] 0 0
r 2.174461 1 10 tcp 1040 ------- 2 0.0.8.0 1.0.2.0 15 37
r 2.175517 8 9 tcp 1040 ------- 2 0.0.8.0 1.0.2.0 17 40
+ 2.175517 9 0 tcp 1040 ------- 2 0.0.8.0 1.0.2.0 17 40
- 2.175517 9 0 tcp 1040 ------- 2 0.0.8.0 1.0.2.0 17 40
+ 2.175717 10 1 ack 60 ------- 2 1.0.2.0 0.0.8.0 9 42
- 2.175717 10 1 ack 60 ------- 2 1.0.2.0 0.0.8.0 9 42
r 2.176125 1 10 tcp 1040 ------- 2 0.0.8.0 1.0.2.0 16 38
r 2.177181 8 9 tcp 1040 ------- 2 0.0.8.0 1.0.2.0 18 41
+ 2.177181 9 0 tcp 1040 ------- 2 0.0.8.0 1.0.2.0 18 41
- 2.177181 9 0 tcp 1040 ------- 2 0.0.8.0 1.0.2.0 18 41
r 2.177813 10 1 ack 60 ------- 2 1.0.2.0 0.0.8.0 9 42
+ 2.177813 1 0 ack 60 ------- 2 1.0.2.0 0.0.8.0 9 42
- 2.177813 1 0 ack 60 ------- 2 1.0.2.0 0.0.8.0 9 42
r 2.179181 9 0 tcp 1040 ------- 2 0.0.8.0 1.0.2.0 17 40
+ 2.179181 0 1 tcp 1040 ------- 2 0.0.8.0 1.0.2.0 17 40
- 2.179181 0 1 tcp 1040 ------- 2 0.0.8.0 1.0.2.0 17 40
r 2.179909 1 0 ack 60 ------- 2 1.0.2.0 0.0.8.0 9 42
+ 2.179909 0 9 ack 60 ------- 2 1.0.2.0 0.0.8.0 9 42
- 2.179909 0 9 ack 60 ------- 2 1.0.2.0 0.0.8.0 9 42
r 2.180845 9 0 tcp 1040 ------- 2 0.0.8.0 1.0.2.0 18 41
+ 2.180845 0 1 tcp 1040 ------- 2 0.0.8.0 1.0.2.0 18 41
- 2.180845 0 1 tcp 1040 ------- 2 0.0.8.0 1.0.2.0 18 41
r 2.182005 0 9 ack 60 ------- 2 1.0.2.0 0.0.8.0 9 42
+ 2.182005 9 8 ack 60 ------- 2 1.0.2.0 0.0.8.0 9 42
- 2.182005 9 8 ack 60 ------- 2 1.0.2.0 0.0.8.0 9 42
r 2.182845 0 1 tcp 1040 ------- 2 0.0.8.0 1.0.2.0 17 40
+ 2.182845 1 10 tcp 1040 ------- 2 0.0.8.0 1.0.2.0 17 40
- 2.182845 1 10 tcp 1040 ------- 2 0.0.8.0 1.0.2.0 17 40
r 2.184101 9 8 ack 60 ------- 2 1.0.2.0 0.0.8.0 9 42
+ 2.184101 8 9 tcp 1040 ------- 2 0.0.8.0 1.0.2.0 19 43
- 2.184101 8 9 tcp 1040 ------- 2 0.0.8.0 1.0.2.0 19 43
+ 2.184101 8 9 tcp 1040 ------- 2 0.0.8.0 1.0.2.0 20 44
r 2.184509 0 1 tcp 1040 ------- 2 0.0.8.0 1.0.2.0 18 41
+ 2.184509 1 10 tcp 1040 ------- 2 0.0.8.0 1.0.2.0 18 41
- 2.184509 1 10 tcp 1040 ------- 2 0.0.8.0 1.0.2.0 18 41
- 2.185765 8 9 tcp 1040 ------- 2 0.0.8.0 1.0.2.0 20 44
r 2.185841410 _13_ AGT  --- 30 tcp 1040 [13a 3 0 800] ------- [8:0 4194306:0 27 4194306] [10 0] 1 0
s 2.185841410 _13_ AGT  --- 45 ack 40 [0 0 0 0] ------- [4194306:0 8:0 32 0] [10 0] 0 0
r 2.186509 1 10 tcp 1040 ------- 2 0.0.8.0 1.0.2.0 17 40
r 2.187765 8 9 tcp 1040 ------- 2 0.0.8.0 1.0.2.0 19 43
+ 2.187765 9 0 tcp 1040 ------- 2 0.0.8.0 1.0.2.0 19 43
- 2.187765 9 0 tcp 1040 ------- 2 0.0.8.0 1.0.2.0 19 43
+ 2.188005 10 1 ack 60 ------- 2 1.0.2.0 0.0.8.0 10 45
- 2.188005 10 1 ack 60 ------- 2 1.0.2.0 0.0.8.0 10 45
r 2.188173 1 10 tcp 1040 ------- 2 0.0.8.0 1.0.2.0 18 41
r 2.189429 8 9 tcp 1040 ------- 2 0.0.8.0 1.0.2.0 20 44
+ 2.189429 9 0 tcp 1040 ------- 2 0.0.8.0 1.0.2.0 20 44
- 2.189429 9 0 tcp 1040 ------- 2 0.0.8.0 1.0.2.0 20 44
r 2.190101 10 1 ack 60 ------- 2 1.0.2.0 0.0.8.0 10 45
+ 2.190101 1 0 ack 60 ------- 2 1.0.2.0 0.0.8.0 10 45
- 2.190101 1 0 ack 60 ------- 2 1.0.2.0 0.0.8.0 10 45
r 2.191429 9 0 tcp 1040 ------- 2 0.0.8.0 1.0.2.0 19 43
+ 2.191429 0 1 tcp 1040 ------- 2 0.0.8.0 1.0.2.0 19 43
- 2.191429 0 1 tcp 1040 ------- 2 0.0.8.0 1.0.2.0 19 43
r 2.192197 1 0 ack 60 ------- 2 1.0.2.0 0.0.8.0 10 45
+ 2.192197 0 9 ack 60 ------- 2 1.0.2.0 0.0.8.0 10 45
- 2.192197 0 9 ack 60 ------- 2 1.0.2.0 0.0.8.0 10 45
r 2.193093 9 0 tcp 1040 ------- 2 0.0.8.0 1.0.2.0 20 44
+ 2.193093 0 1 tcp 1040 ------- 2 0.0.8.0 1.0.2.0 20 44
- 2.193093 0 1 tcp 1040 ------- 2 0.0.8.0 1.0.2.0 20 44
r 2.194293 0 9 ack 60 ------- 2 1.0.2.0 0.0.8.0 10 45
+ 2.194293 9 8 ack 60 ------- 2 1.0.2.0 0.0.8.0 10 45
- 2.194293 9 8 ack 60 ------- 2 1.0.2.0 0.0.8.0 10 45
r 2.195093 0 1 tcp 1040 ------- 2 0.0.8.0 1.0.2.0 19 43
+ 2.195093 1 10 tcp 1040 ------- 2 0.0.8.0 1.0.2.0 19 43
- 2.195093 1 10 tcp 1040 ------- 2 0.0.8.0 1.0.2.0 19 43
r 2.196389 9 8 ack 60 ------- 2 1.0.2.0 0.0.8.0 10 45
+ 2.196389 8 9 tcp 1040 ------- 2 0.0.8.0 1.0.2.0 21 46
- 2.196389 8 9 tcp 1040 ------- 2 0.0.8.0 1.0.2.0 21 46
+ 2.196389 8 9 tcp 1040 ------- 2 0.0.8.0 1.0.2.0 22 47
r 2.196757 0 1 tcp 1040 ------- 2 0.0.8.0 1.0.2.0 20 44
+ 2.196757 1 10 tcp 1040 ------- 2 0.0.8.0 1.0.2.0 20 44
- 2.196757 1 10 tcp 1040 ------- 2 0.0.8.0 1.0.2.0 20 44
r 2.197969455 _13_ AGT  --- 31 tcp 1040 [13a 3 0 800] ------- [8:0 4194306:0 27 4194306] [11 0] 1 0
s 2.197969455 _13_ AGT  --- 48 ack 40 [0 0 0 0] ------- [4194306:0 8:0 32 0] [11 0] 0 0
- 2.198053 8 9 tcp 1040 ------- 2 0.0.8.0 1.0.2.0 22 47
r 2.198757 1 10 tcp 1040 ------- 2 0.0.8.0 1.0.2.0 19 43
+ 2.199993 10 1 ack 60 ------- 2 1.0.2.0 0.0.8.0 11 48
- 2.199993 10 1 ack 60 ------- 2 1.0.2.0 0.0.8.0 11 48
+ 2.2 1 10 tcp 40 ------- 2 0.0.1.0 1.0.1.0 0 49
- 2.2 1 10 tcp 40 ------- 2 0.0.1.0 1.0.1.0 0 49
r 2.200053 8 9 tcp 1040 ------- 2 0.0.8.0 1.0.2.0 21 46
+ 2.200053 9 0 tcp 1040 ------- 2 0.0.8.0 1.0.2.0 21 46
- 2.200053 9 0 tcp 1040 ------- 2 0.0.8.0 1.0.2.0 21 46
r 2.200421 1 10 tcp 1040 ------- 2 0.0.8.0 1.0.2.0 20 44
r 2.201717 8 9 tcp 1040 ------- 2 0.0.8.0 1.0.2.0 22 47
+ 2.201717 9 0 tcp 1040 ------- 2 0.0.8.0 1.0.2.0 22 47
- 2.201717 9 0 tcp 1040 ------- 2 0.0.8.0 1.0.2.0 22 47
r 2.202064 1 10 tcp 40 ------- 2 0.0.1.0 1.0.1.0 0 49
r 2.202089 10 1 ack 60 ------- 2 1.0.2.0 0.0.8.0 11 48
+ 2.202089 1 0 ack 60 ------- 2 1.0.2.0 0.0.8.0 11 48
- 2.202089 1 0 ack 60 ------- 2 1.0.2.0 0.0.8.0 11 48
r 2.203717 9 0 tcp 1040 ------- 2 0.0.8.0 1.0.2.0 21 46
+ 2.203717 0 1 tcp 1040 ------- 2 0.0.8.0 1.0.2.0 21 46
- 2.203717 0 1 tcp 1040 ------- 2 0.0.8.0 1.0.2.0 21 46
r 2.204185 1 0 ack 60 ------- 2 1.0.2.0 0.0.8.0 11 48
+ 2.204185 0 9 ack 60 ------- 2 1.0.2.0 0.0.8.0 11 48
- 2.204185 0 9 ack 60 ------- 2 1.0.2.0 0.0.8.0 11 48
r 2.205381 9 0 tcp 1040 ------- 2 0.0.8.0 1.0.2.0 22 47
+ 2.205381 0 1 tcp 1040 ------- 2 0.0.8.0 1.0.2.0 22 47
- 2.205381 0 1 tcp 1040 ------- 2 0.0.8.0 1.0.2.0 22 47
r 2.206281 0 9 ack 60 ------- 2 1.0.2.0 0.0.8.0 11 48
+ 2.206281 9 8 ack 60 ------- 2 1.0.2.0 0.0.8.0 11 48
- 2.206281 9 8 ack 60 ------- 2 1.0.2.0 0.0.8.0 11 48
r 2.207381 0 1 tcp 1040 ------- 2 0.0.8.0 1.0.2.0 21 46
+ 2.207381 1 10 tcp 1040 ------- 2 0.0.8.0 1.0.2.0 21 46
- 2.207381 1 10 tcp 1040 ------- 2 0.0.8.0 1.0.2.0 21 46
r 2.208377 9 8 ack 60 ------- 2 1.0.2.0 0.0.8.0 11 48
+ 2.208377 8 9 tcp 1040 ------- 2 0.0.8.0 1.0.2.0 23 50
- 2.208377 8 9 tcp 1040 ------- 2 0.0.8.0 1.0.2.0 23 50
+ 2.208377 8 9 tcp 1040 ------- 2 0.0.8.0 1.0.2.0 24 51
r 2.209045 0 1 tcp 1040 ------- 2 0.0.8.0 1.0.2.0 22 47
+ 2.209045 1 10 tcp 1040 ------- 2 0.0.8.0 1.0.2.0 22 47
- 2.209045 1 10 tcp 1040 ------- 2 0.0.8.0 1.0.2.0 22 47
- 2.210041 8 9 tcp 1040 ------- 2 0.0.8.0 1.0.2.0 24 51
r 2.210317499 _13_ AGT  --- 32 tcp 1040 [13a 3 0 800] ------- [8:0 4194306:0 27 4194306] [12 0] 1 0
s 2.210317499 _13_ AGT  --- 52 ack 40 [0 0 0 0] ------- [4194306:0 8:0 32 0] [12 0] 0 0
r 2.211045 1 10 tcp 1040 ------- 2 0.0.8.0 1.0.2.0 21 46
r 2.212041 8 9 tcp 1040 ------- 2 0.0.8.0 1.0.2.0 23 50
+ 2.212041 9 0 tcp 1040 ------- 2 0.0.8.0 1.0.2.0 23 50
- 2.212041 9 0 tcp 1040 ------- 2 0.0.8.0 1.0.2.0 23 50
+ 2.212442 10 1 ack 60 ------- 2 1.0.2.0 0.0.8.0 12 52
- 2.212442 10 1 ack 60 ------- 2 1.0.2.0 0.0.8.0 12 52
r 2.212709 1 10 tcp 1040 ------- 2 0.0.8.0 1.0.2.0 22 47
r 2.213705 8 9 tcp 1040 ------- 2 0.0.8.0 1.0.2.0 24 51
+ 2.213705 9 0 tcp 1040 ------- 2 0.0.8.0 1.0.2.0 24 51
- 2.213705 9 0 tcp 1040 ------- 2 0.0.8.0 1.0.2.0 24 51
r 2.214538 10 1 ack 60 ------- 2 1.0.2.0 0.0.8.0 12 52
+ 2.214538 1 0 ack 60 ------- 2 1.0.2.0 0.0.8.0 12 52
- 2.214538 1 0 ack 60 ------- 2 1.0.2.0 0.0.8.0 12 52
r 2.215705 9 0 tcp 1040 ------- 2 0.0.8.0 1.0.2.0 23 50
+ 2.215705 0 1 tcp 1040 ------- 2 0.0.8.0 1.0.2.0 23 50
- 2.215705 0 1 tcp 1040 ------- 2 0.0.8.0 1.0.2.0 23 50
r 2.216634 1 0 ack 60 ------- 2 1.0.2.0 0.0.8.0 12 52
+ 2.216634 0 9 ack 60 ------- 2 1.0.2.0 0.0.8.0 12 52
- 2.216634 0 9 ack 60 ------- 2 1.0.2.0 0.0.8.0 12 52
r 2.217369 9 0 tcp 1040 ------- 2 0.0.8.0 1.0.2.0 24 51
+ 2.217369 0 1 tcp 1040 ------- 2 0.0.8.0 1.0.2.0 24 51
- 2.217369 0 1 tcp 1040 ------- 2 0.0.8.0 1.0.2.0 24 51
r 2.21873 0 9 ack 60 ------- 2 1.0.2.0 0.0.8.0 12 52
+ 2.21873 9 8 ack 60 ------- 2 1.0.2.0 0.0.8.0 12 52
- 2.21873 9 8 ack 60 ------- 2 1.0.2.0 0.0.8.0 12 52
r 2.219369 0 1 tcp 1040 ------- 2 0.0.8.0 1.0.2.0 23 50
+ 2.219369 1 10 tcp 1040 ------- 2 0.0.8.0 1.0.2.0 23 50
- 2.219369 1 10 tcp 1040 ------- 2 0.0.8.0 1.0.2.0 23 50
r 2.220826 9 8 ack 60 ------- 2 1.0.2.0 0.0.8.0 12 52
+ 2.220826 8 9 tcp 1040 ------- 2 0.0.8.0 1.0.2.0 25 53
- 2.220826 8 9 tcp 1040 ------- 2 0.0.8.0 1.0.2.0 25 53
+ 2.220826 8 9 tcp 1040 ------- 2 0.0.8.0 1.0.2.0 26 54
r 2.221033 0 1 tcp 1040 ------- 2 0.0.8.0 1.0.2.0 24 51
+ 2.221033 1 10 tcp 1040 ------- 2 0.0.8.0 1.0.2.0 24 51
- 2.221033 1 10 tcp 1040 ------- 2 0.0.8.0 1.0.2.0 24 51
r 2.222365544 _13_ AGT  --- 34 tcp 1040 [13a 3 0 800] ------- [8:0 4194306:0 27 4194306] [13 0] 1 0
s 2.222365544 _13_ AGT  --- 55 ack 40 [0 0 0 0] ------- [4194306:0 8:0 32 0] [13 0] 0 0
- 2.22249 8 9 tcp 1040 ------- 2 0.0.8.0 1.0.2.0 26 54
r 2.223033 1 10 tcp 1040 ------- 2 0.0.8.0 1.0.2.0 23 50