n -t * -s 0  -x 0 -y 0 -Z 0 -z 20  -v circle -c black
n -t * -s 1  -x 25 -y 0 -Z 0 -z 20  -v circle -c black
n -t * -s 2  -x 50 -y 0 -Z 0 -z 20  -v circle -c black
n -t * -s 3  -x 75 -y 0 -Z 0 -z 20  -v circle -c black
n -t * -s 4  -x 0 -y 25 -Z 0 -z 20  -v circle -c black
n -t * -s 5  -x 25 -y 25 -Z 0 -z 20  -v circle -c black
n -t * -s 6  -x 50 -y 25 -Z 0 -z 20  -v circle -c black
n -t * -s 7  -x 75 -y 25 -Z 0 -z 20  -v circle -c black
n -t * -s 8  -x 0 -y 50 -Z 0 -z 20  -v circle -c black
n -t * -s 9  -x 25 -y 50 -Z 0 -z 20  -v circle -c black
n -t * -s 10  -x 50 -y 50 -Z 0 -z 20  -v circle -c black
n -t * -s 11  -x 75 -y 50 -Z 0 -z 20  -v circle -c black
n -t * -s 12  -x 0 -y 75 -Z 0 -z 20  -v circle -c black
n -t * -s 13  -x 25 -y 75 -Z 0 -z 20  -v circle -c black
n -t * -s 14  -x 50 -y 75 -Z 0 -z 20  -v circle -c black
n -t * -s 15  -x 75 -y 75 -Z 0 -z 20  -v circle -c black
n -t * -s 16  -x 0 -y 100 -Z 0 -z 20  -v circle -c black
n -t * -s 17  -x 25 -y 100 -Z 0 -z 20  -v circle -c black
n -t * -s 18  -x 50 -y 100 -Z 0 -z 20  -v circle -c black
n -t * -s 19  -x 75 -y 100 -Z 0 -z 20  -v circle -c black
V -t * -v 1.0a5 -a 0
W -t * -x 600 -y 600
A -t * -n 1 -p 0 -o 0x7fffffff -c 30 -a 1
A -t * -h 1 -m 1073741823 -s 0
+ -t 0.088001372 -s 3 -d -1 -p message -e 32 -c 2 -a 0 -i 0 -k RTR 
- -t 0.088001372 -s 3 -d -1 -p message -e 32 -c 2 -a 0 -i 0 -k RTR
h -t 0.088001372 -s 3 -d -1 -p message -e 32 -c 2 -a 0 -i 0 -k RTR
r -t 0.089121455 -s 2 -d -1 -p message -e 32 -c 2 -a 0 -i 0 -k RTR
r -t 0.089121455 -s 7 -d -1 -p message -e 32 -c 2 -a 0 -i 0 -k RTR
r -t 0.089121490 -s 6 -d -1 -p message -e 32 -c 2 -a 0 -i 0 -k RTR
r -t 0.089121538 -s 1 -d -1 -p message -e 32 -c 2 -a 0 -i 0 -k RTR
r -t 0.089121538 -s 11 -d -1 -p message -e 32 -c 2 -a 0 -i 0 -k RTR
r -t 0.089121558 -s 10 -d -1 -p message -e 32 -c 2 -a 0 -i 0 -k RTR
r -t 0.089121558 -s 5 -d -1 -p message -e 32 -c 2 -a 0 -i 0 -k RTR
r -t 0.089121607 -s 9 -d -1 -p message -e 32 -c 2 -a 0 -i 0 -k RTR
r -t 0.089121622 -s 0 -d -1 -p message -e 32 -c 2 -a 0 -i 0 -k RTR
r -t 0.089121622 -s 15 -d -1 -p message -e 32 -c 2 -a 0 -i 0 -k RTR
r -t 0.089121635 -s 14 -d -1 -p message -e 32 -c 2 -a 0 -i 0 -k RTR
r -t 0.089121635 -s 4 -d -1 -p message -e 32 -c 2 -a 0 -i 0 -k RTR
r -t 0.089121672 -s 13 -d -1 -p message -e 32 -c 2 -a 0 -i 0 -k RTR
r -t 0.089121672 -s 8 -d -1 -p message -e 32 -c 2 -a 0 -i 0 -k RTR
r -t 0.089121705 -s 19 -d -1 -p message -e 32 -c 2 -a 0 -i 0 -k RTR
r -t 0.089121715 -s 18 -d -1 -p message -e 32 -c 2 -a 0 -i 0 -k RTR
r -t 0.089121725 -s 12 -d -1 -p message -e 32 -c 2 -a 0 -i 0 -k RTR
r -t 0.089121744 -s 17 -d -1 -p message -e 32 -c 2 -a 0 -i 0 -k RTR
r -t 0.089121788 -s 16 -d -1 -p message -e 32 -c 2 -a 0 -i 0 -k RTR
+ -t 0.197327164 -s 9 -d -1 -p message -e 32 -c 2 -a 0 -i 1 -k RTR 
- -t 0.197327164 -s 9 -d -1 -p message -e 32 -c 2 -a 0 -i 1 -k RTR
h -t 0.197327164 -s 9 -d -1 -p message -e 32 -c 2 -a 0 -i 1 -k RTR
r -t 0.198427247 -s 5 -d -1 -p message -e 32 -c 2 -a 0 -i 1 -k RTR
r -t 0.198427247 -s 8 -d -1 -p message -e 32 -c 2 -a 0 -i 1 -k RTR
r -t 0.198427247 -s 13 -d -1 -p message -e 32 -c 2 -a 0 -i 1 -k RTR
r -t 0.198427247 -s 10 -d -1 -p message -e 32 -c 2 -a 0 -i 1 -k RTR
r -t 0.198427282 -s 12 -d -1 -p message -e 32 -c 2 -a 0 -i 1 -k RTR
r -t 0.198427282 -s 4 -d -1 -p message -e 32 -c 2 -a 0 -i 1 -k RTR
r -t 0.198427282 -s 6 -d -1 -p message -e 32 -c 2 -a 0 -i 1 -k RTR
r -t 0.198427282 -s 14 -d -1 -p message -e 32 -c 2 -a 0 -i 1 -k RTR
r -t 0.198427330 -s 1 -d -1 -p message -e 32 -c 2 -a 0 -i 1 -k RTR
r -t 0.198427330 -s 17 -d -1 -p message -e 32 -c 2 -a 0 -i 1 -k RTR
r -t 0.198427330 -s 11 -d -1 -p message -e 32 -c 2 -a 0 -i 1 -k RTR
r -t 0.198427350 -s 16 -d -1 -p message -e 32 -c 2 -a 0 -i 1 -k RTR
r -t 0.198427350 -s 0 -d -1 -p message -e 32 -c 2 -a 0 -i 1 -k RTR
r -t 0.198427350 -s 2 -d -1 -p message -e 32 -c 2 -a 0 -i 1 -k RTR
r -t 0.198427350 -s 18 -d -1 -p message -e 32 -c 2 -a 0 -i 1 -k RTR
r -t 0.198427350 -s 7 -d -1 -p message -e 32 -c 2 -a 0 -i 1 -k RTR
r -t 0.198427350 -s 15 -d -1 -p message -e 32 -c 2 -a 0 -i 1 -k RTR
r -t 0.198427399 -s 3 -d -1 -p message -e 32 -c 2 -a 0 -i 1 -k RTR
r -t 0.198427399 -s 19 -d -1 -p message -e 32 -c 2 -a 0 -i 1 -k RTR
+ -t 0.229490150 -s 5 -d -1 -p message -e 32 -c 2 -a 0 -i 2 -k RTR 
- -t 0.229490150 -s 5 -d -1 -p message -e 32 -c 2 -a 0 -i 2 -k RTR
h -t 0.229490150 -s 5 -d -1 -p message -e 32 -c 2 -a 0 -i 2 -k RTR
r -t 0.230530233 -s 1 -d -1 -p message -e 32 -c 2 -a 0 -i 2 -k RTR
r -t 0.230530233 -s 4 -d -1 -p message -e 32 -c 2 -a 0 -i 2 -k RTR
r -t 0.230530233 -s 9 -d -1 -p message -e 32 -c 2 -a 0 -i 2 -k RTR
r -t 0.230530233 -s 6 -d -1 -p message -e 32 -c 2 -a 0 -i 2 -k RTR
r -t 0.230530267 -s 8 -d -1 -p message -e 32 -c 2 -a 0 -i 2 -k RTR
r -t 0.230530267 -s 0 -d -1 -p message -e 32 -c 2 -a 0 -i 2 -k RTR
r -t 0.230530267 -s 2 -d -1 -p message -e 32 -c 2 -a 0 -i 2 -k RTR
r -t 0.230530267 -s 10 -d -1 -p message -e 32 -c 2 -a 0 -i 2 -k RTR
r -t 0.230530316 -s 13 -d -1 -p message -e 32 -c 2 -a 0 -i 2 -k RTR
r -t 0.230530316 -s 7 -d -1 -p message -e 32 -c 2 -a 0 -i 2 -k RTR
r -t 0.230530336 -s 12 -d -1 -p message -e 32 -c 2 -a 0 -i 2 -k RTR
r -t 0.230530336 -s 14 -d -1 -p message -e 32 -c 2 -a 0 -i 2 -k RTR
r -t 0.230530336 -s 3 -d -1 -p message -e 32 -c 2 -a 0 -i 2 -k RTR
r -t 0.230530336 -s 11 -d -1 -p message -e 32 -c 2 -a 0 -i 2 -k RTR
r -t 0.230530385 -s 15 -d -1 -p message -e 32 -c 2 -a 0 -i 2 -k RTR
r -t 0.230530400 -s 17 -d -1 -p message -e 32 -c 2 -a 0 -i 2 -k RTR
r -t 0.230530413 -s 16 -d -1 -p message -e 32 -c 2 -a 0 -i 2 -k RTR
r -t 0.230530413 -s 18 -d -1 -p message -e 32 -c 2 -a 0 -i 2 -k RTR
r -t 0.230530450 -s 19 -d -1 -p message -e 32 -c 2 -a 0 -i 2 -k RTR
+ -t 0.329411126 -s 2 -d -1 -p message -e 32 -c 2 -a 0 -i 3 -k RTR 
- -t 0.329411126 -s 2 -d -1 -p message -e 32 -c 2 -a 0 -i 3 -k RTR
h -t 0.329411126 -s 2 -d -1 -p message -e 32 -c 2 -a 0 -i 3 -k RTR
r -t 0.330351210 -s 1 -d -1 -p message -e 32 -c 2 -a 0 -i 3 -k RTR
r -t 0.330351210 -s 6 -d -1 -p message -e 32 -c 2 -a 0 -i 3 -k RTR
r -t 0.330351210 -s 3 -d -1 -p message -e 32 -c 2 -a 0 -i 3 -k RTR
r -t 0.330351244 -s 5 -d -1 -p message -e 32 -c 2 -a 0 -i 3 -k RTR
r -t 0.330351244 -s 7 -d -1 -p message -e 32 -c 2 -a 0 -i 3 -k RTR
r -t 0.330351293 -s 0 -d -1 -p message -e 32 -c 2 -a 0 -i 3 -k RTR
r -t 0.330351293 -s 10 -d -1 -p message -e 32 -c 2 -a 0 -i 3 -k RTR
r -t 0.330351313 -s 9 -d -1 -p message -e 32 -c 2 -a 0 -i 3 -k RTR
r -t 0.330351313 -s 4 -d -1 -p message -e 32 -c 2 -a 0 -i 3 -k RTR
r -t 0.330351313 -s 11 -d -1 -p message -e 32 -c 2 -a 0 -i 3 -k RTR
r -t 0.330351362 -s 8 -d -1 -p message -e 32 -c 2 -a 0 -i 3 -k RTR
r -t 0.330351376 -s 14 -d -1 -p message -e 32 -c 2 -a 0 -i 3 -k RTR
r -t 0.330351390 -s 13 -d -1 -p message -e 32 -c 2 -a 0 -i 3 -k RTR
r -t 0.330351390 -s 15 -d -1 -p message -e 32 -c 2 -a 0 -i 3 -k RTR
r -t 0.330351427 -s 12 -d -1 -p message -e 32 -c 2 -a 0 -i 3 -k RTR
r -t 0.330351460 -s 18 -d -1 -p message -e 32 -c 2 -a 0 -i 3 -k RTR
r -t 0.330351470 -s 17 -d -1 -p message -e 32 -c 2 -a 0 -i 3 -k RTR
r -t 0.330351470 -s 19 -d -1 -p message -e 32 -c 2 -a 0 -i 3 -k RTR
r -t 0.330351499 -s 16 -d -1 -p message -e 32 -c 2 -a 0 -i 3 -k RTR
+ -t 0.352967135 -s 8 -d -1 -p message -e 32 -c 2 -a 0 -i 4 -k RTR 
- -t 0.352967135 -s 8 -d -1 -p message -e 32 -c 2 -a 0 -i 4 -k RTR
h -t 0.352967135 -s 8 -d -1 -p message -e 32 -c 2 -a 0 -i 4 -k RTR
r -t 0.353967219 -s 4 -d -1 -p message -e 32 -c 2 -a 0 -i 4 -k RTR
r -t 0.353967219 -s 12 -d -1 -p message -e 32 -c 2 -a 0 -i 4 -k RTR
r -t 0.353967219 -s 9 -d -1 -p message -e 32 -c 2 -a 0 -i 4 -k RTR
r -t 0.353967253 -s 5 -d -1 -p message -e 32 -c 2 -a 0 -i 4 -k RTR
r -t 0.353967253 -s 13 -d -1 -p message -e 32 -c 2 -a 0 -i 4 -k RTR
r -t 0.353967302 -s 0 -d -1 -p message -e 32 -c 2 -a 0 -i 4 -k RTR
r -t 0.353967302 -s 16 -d -1 -p message -e 32 -c 2 -a 0 -i 4 -k RTR
r -t 0.353967302 -s 10 -d -1 -p message -e 32 -c 2 -a 0 -i 4 -k RTR
r -t 0.353967322 -s 1 -d -1 -p message -e 32 -c 2 -a 0 -i 4 -k RTR
r -t 0.353967322 -s 17 -d -1 -p message -e 32 -c 2 -a 0 -i 4 -k RTR
r -t 0.353967322 -s 6 -d -1 -p message -e 32 -c 2 -a 0 -i 4 -k RTR
r -t 0.353967322 -s 14 -d -1 -p message -e 32 -c 2 -a 0 -i 4 -k RTR
r -t 0.353967371 -s 2 -d -1 -p message -e 32 -c 2 -a 0 -i 4 -k RTR
r -t 0.353967371 -s 18 -d -1 -p message -e 32 -c 2 -a 0 -i 4 -k RTR
r -t 0.353967385 -s 11 -d -1 -p message -e 32 -c 2 -a 0 -i 4 -k RTR
r -t 0.353967399 -s 7 -d -1 -p message -e 32 -c 2 -a 0 -i 4 -k RTR
r -t 0.353967399 -s 15 -d -1 -p message -e 32 -c 2 -a 0 -i 4 -k RTR
r -t 0.353967436 -s 3 -d -1 -p message -e 32 -c 2 -a 0 -i 4 -k RTR
r -t 0.353967436 -s 19 -d -1 -p message -e 32 -c 2 -a 0 -i 4 -k RTR
+ -t 0.441305651 -s 19 -d -1 -p message -e 32 -c 2 -a 0 -i 5 -k RTR 
- -t 0.441305651 -s 19 -d -1 -p message -e 32 -c 2 -a 0 -i 5 -k RTR
h -t 0.441305651 -s 19 -d -1 -p message -e 32 -c 2 -a 0 -i 5 -k RTR
r -t 0.442345734 -s 15 -d -1 -p message -e 32 -c 2 -a 0 -i 5 -k RTR
r -t 0.442345734 -s 18 -d -1 -p message -e 32 -c 2 -a 0 -i 5 -k RTR
r -t 0.442345769 -s 14 -d -1 -p message -e 32 -c 2 -a 0 -i 5 -k RTR
r -t 0.442345818 -s 11 -d -1 -p message -e 32 -c 2 -a 0 -i 5 -k RTR
r -t 0.442345818 -s 17 -d -1 -p message -e 32 -c 2 -a 0 -i 5 -k RTR
r -t 0.442345837 -s 10 -d -1 -p message -e 32 -c 2 -a 0 -i 5 -k RTR
r -t 0.442345837 -s 13 -d -1 -p message -e 32 -c 2 -a 0 -i 5 -k RTR
r -t 0.442345887 -s 9 -d -1 -p message -e 32 -c 2 -a 0 -i 5 -k RTR
r -t 0.442345901 -s 7 -d -1 -p message -e 32 -c 2 -a 0 -i 5 -k RTR
r -t 0.442345901 -s 16 -d -1 -p message -e 32 -c 2 -a 0 -i 5 -k RTR
r -t 0.442345915 -s 6 -d -1 -p message -e 32 -c 2 -a 0 -i 5 -k RTR
r -t 0.442345915 -s 12 -d -1 -p message -e 32 -c 2 -a 0 -i 5 -k RTR
r -t 0.442345952 -s 5 -d -1 -p message -e 32 -c 2 -a 0 -i 5 -k RTR
r -t 0.442345952 -s 8 -d -1 -p message -e 32 -c 2 -a 0 -i 5 -k RTR
r -t 0.442345984 -s 3 -d -1 -p message -e 32 -c 2 -a 0 -i 5 -k RTR
r -t 0.442345995 -s 2 -d -1 -p message -e 32 -c 2 -a 0 -i 5 -k RTR
r -t 0.442346005 -s 4 -d -1 -p message -e 32 -c 2 -a 0 -i 5 -k RTR
r -t 0.442346024 -s 1 -d -1 -p message -e 32 -c 2 -a 0 -i 5 -k RTR
r -t 0.442346068 -s 0 -d -1 -p message -e 32 -c 2 -a 0 -i 5 -k RTR
+ -t 0.521724294 -s 12 -d -1 -p message -e 32 -c 2 -a 0 -i 6 -k RTR 
- -t 0.521724294 -s 12 -d -1 -p message -e 32 -c 2 -a 0 -i 6 -k RTR
h -t 0.521724294 -s 12 -d -1 -p message -e 32 -c 2 -a 0 -i 6 -k RTR
r -t 0.522624378 -s 8 -d -1 -p message -e 32 -c 2 -a 0 -i 6 -k RTR
r -t 0.522624378 -s 16 -d -1 -p message -e 32 -c 2 -a 0 -i 6 -k RTR
r -t 0.522624378 -s 13 -d -1 -p message -e 32 -c 2 -a 0 -i 6 -k RTR
r -t 0.522624412 -s 9 -d -1 -p message -e 32 -c 2 -a 0 -i 6 -k RTR
r -t 0.522624412 -s 17 -d -1 -p message -e 32 -c 2 -a 0 -i 6 -k RTR
r -t 0.522624461 -s 4 -d -1 -p message -e 32 -c 2 -a 0 -i 6 -k RTR
r -t 0.522624461 -s 14 -d -1 -p message -e 32 -c 2 -a 0 -i 6 -k RTR
r -t 0.522624481 -s 5 -d -1 -p message -e 32 -c 2 -a 0 -i 6 -k RTR
r -t 0.522624481 -s 10 -d -1 -p message -e 32 -c 2 -a 0 -i 6 -k RTR
r -t 0.522624481 -s 18 -d -1 -p message -e 32 -c 2 -a 0 -i 6 -k RTR
r -t 0.522624530 -s 6 -d -1 -p message -e 32 -c 2 -a 0 -i 6 -k RTR
r -t 0.522624544 -s 0 -d -1 -p message -e 32 -c 2 -a 0 -i 6 -k RTR
r -t 0.522624544 -s 15 -d -1 -p message -e 32 -c 2 -a 0 -i 6 -k RTR
r -t 0.522624558 -s 1 -d -1 -p message -e 32 -c 2 -a 0 -i 6 -k RTR
r -t 0.522624558 -s 11 -d -1 -p message -e 32 -c 2 -a 0 -i 6 -k RTR
r -t 0.522624558 -s 19 -d -1 -p message -e 32 -c 2 -a 0 -i 6 -k RTR
r -t 0.522624595 -s 2 -d -1 -p message -e 32 -c 2 -a 0 -i 6 -k RTR
r -t 0.522624595 -s 7 -d -1 -p message -e 32 -c 2 -a 0 -i 6 -k RTR
r -t 0.522624648 -s 3 -d -1 -p message -e 32 -c 2 -a 0 -i 6 -k RTR
+ -t 0.620020258 -s 0 -d -1 -p message -e 32 -c 2 -a 0 -i 7 -k RTR 
- -t 0.620020258 -s 0 -d -1 -p message -e 32 -c 2 -a 0 -i 7 -k RTR
h -t 0.620020258 -s 0 -d -1 -p message -e 32 -c 2 -a 0 -i 7 -k RTR
r -t 0.621140342 -s 4 -d -1 -p message -e 32 -c 2 -a 0 -i 7 -k RTR
r -t 0.621140342 -s 1 -d -1 -p message -e 32 -c 2 -a 0 -i 7 -k RTR
r -t 0.621140376 -s 5 -d -1 -p message -e 32 -c 2 -a 0 -i 7 -k RTR
r -t 0.621140425 -s 8 -d -1 -p message -e 32 -c 2 -a 0 -i 7 -k RTR
r -t 0.621140425 -s 2 -d -1 -p message -e 32 -c 2 -a 0 -i 7 -k RTR
r -t 0.621140445 -s 9 -d -1 -p message -e 32 -c 2 -a 0 -i 7 -k RTR
r -t 0.621140445 -s 6 -d -1 -p message -e 32 -c 2 -a 0 -i 7 -k RTR
r -t 0.621140494 -s 10 -d -1 -p message -e 32 -c 2 -a 0 -i 7 -k RTR
r -t 0.621140508 -s 12 -d -1 -p message -e 32 -c 2 -a 0 -i 7 -k RTR
r -t 0.621140508 -s 3 -d -1 -p message -e 32 -c 2 -a 0 -i 7 -k RTR
r -t 0.621140522 -s 13 -d -1 -p message -e 32 -c 2 -a 0 -i 7 -k RTR
r -t 0.621140522 -s 7 -d -1 -p message -e 32 -c 2 -a 0 -i 7 -k RTR
r -t 0.621140559 -s 14 -d -1 -p message -e 32 -c 2 -a 0 -i 7 -k RTR
r -t 0.621140559 -s 11 -d -1 -p message -e 32 -c 2 -a 0 -i 7 -k RTR
r -t 0.621140592 -s 16 -d -1 -p message -e 32 -c 2 -a 0 -i 7 -k RTR
r -t 0.621140602 -s 17 -d -1 -p message -e 32 -c 2 -a 0 -i 7 -k RTR
r -t 0.621140612 -s 15 -d -1 -p message -e 32 -c 2 -a 0 -i 7 -k RTR
r -t 0.621140631 -s 18 -d -1 -p message -e 32 -c 2 -a 0 -i 7 -k RTR
r -t 0.621140675 -s 19 -d -1 -p message -e 32 -c 2 -a 0 -i 7 -k RTR
+ -t 0.699549391 -s 11 -d -1 -p message -e 32 -c 2 -a 0 -i 8 -k RTR 
- -t 0.699549391 -s 11 -d -1 -p message -e 32 -c 2 -a 0 -i 8 -k RTR
h -t 0.699549391 -s 11 -d -1 -p message -e 32 -c 2 -a 0 -i 8 -k RTR
r -t 0.700609475 -s 7 -d -1 -p message -e 32 -c 2 -a 0 -i 8 -k RTR
r -t 0.700609475 -s 10 -d -1 -p message -e 32 -c 2 -a 0 -i 8 -k RTR
r -t 0.700609475 -s 15 -d -1 -p message -e 32 -c 2 -a 0 -i 8 -k RTR
r -t 0.700609509 -s 14 -d -1 -p message -e 32 -c 2 -a 0 -i 8 -k RTR
r -t 0.700609509 -s 6 -d -1 -p message -e 32 -c 2 -a 0 -i 8 -k RTR
r -t 0.700609558 -s 3 -d -1 -p message -e 32 -c 2 -a 0 -i 8 -k RTR
r -t 0.700609558 -s 9 -d -1 -p message -e 32 -c 2 -a 0 -i 8 -k RTR
r -t 0.700609558 -s 19 -d -1 -p message -e 32 -c 2 -a 0 -i 8 -k RTR
r -t 0.700609578 -s 18 -d -1 -p message -e 32 -c 2 -a 0 -i 8 -k RTR
r -t 0.700609578 -s 2 -d -1 -p message -e 32 -c 2 -a 0 -i 8 -k RTR
r -t 0.700609578 -s 13 -d -1 -p message -e 32 -c 2 -a 0 -i 8 -k RTR
r -t 0.700609578 -s 5 -d -1 -p message -e 32 -c 2 -a 0 -i 8 -k RTR
r -t 0.700609627 -s 17 -d -1 -p message -e 32 -c 2 -a 0 -i 8 -k RTR
r -t 0.700609627 -s 1 -d -1 -p message -e 32 -c 2 -a 0 -i 8 -k RTR
r -t 0.700609641 -s 8 -d -1 -p message -e 32 -c 2 -a 0 -i 8 -k RTR
r -t 0.700609655 -s 12 -d -1 -p message -e 32 -c 2 -a 0 -i 8 -k RTR
r -t 0.700609655 -s 4 -d -1 -p message -e 32 -c 2 -a 0 -i 8 -k RTR
r -t 0.700609692 -s 16 -d -1 -p message -e 32 -c 2 -a 0 -i 8 -k RTR
r -t 0.700609692 -s 0 -d -1 -p message -e 32 -c 2 -a 0 -i 8 -k RTR
+ -t 0.818284921 -s 13 -d -1 -p message -e 32 -c 2 -a 0 -i 9 -k RTR 
- -t 0.818284921 -s 13 -d -1 -p message -e 32 -c 2 -a 0 -i 9 -k RTR
h -t 0.818284921 -s 13 -d -1 -p message -e 32 -c 2 -a 0 -i 9 -k RTR
r -t 0.819565005 -s 9 -d -1 -p message -e 32 -c 2 -a 0 -i 9 -k RTR
r -t 0.819565005 -s 12 -d -1 -p message -e 32 -c 2 -a 0 -i 9 -k RTR
r -t 0.819565005 -s 17 -d -1 -p message -e 32 -c 2 -a 0 -i 9 -k RTR
r -t 0.819565005 -s 14 -d -1 -p message -e 32 -c 2 -a 0 -i 9 -k RTR
r -t 0.819565039 -s 16 -d -1 -p message -e 32 -c 2 -a 0 -i 9 -k RTR
r -t 0.819565039 -s 8 -d -1 -p message -e 32 -c 2 -a 0 -i 9 -k RTR
r -t 0.819565039 -s 10 -d -1 -p message -e 32 -c 2 -a 0 -i 9 -k RTR
r -t 0.819565039 -s 18 -d -1 -p message -e 32 -c 2 -a 0 -i 9 -k RTR
r -t 0.819565088 -s 5 -d -1 -p message -e 32 -c 2 -a 0 -i 9 -k RTR
r -t 0.819565088 -s 15 -d -1 -p message -e 32 -c 2 -a 0 -i 9 -k RTR
r -t 0.819565108 -s 4 -d -1 -p message -e 32 -c 2 -a 0 -i 9 -k RTR
r -t 0.819565108 -s 6 -d -1 -p message -e 32 -c 2 -a 0 -i 9 -k RTR
r -t 0.819565108 -s 11 -d -1 -p message -e 32 -c 2 -a 0 -i 9 -k RTR
r -t 0.819565108 -s 19 -d -1 -p message -e 32 -c 2 -a 0 -i 9 -k RTR
r -t 0.819565157 -s 7 -d -1 -p message -e 32 -c 2 -a 0 -i 9 -k RTR
r -t 0.819565171 -s 1 -d -1 -p message -e 32 -c 2 -a 0 -i 9 -k RTR
r -t 0.819565185 -s 0 -d -1 -p message -e 32 -c 2 -a 0 -i 9 -k RTR
r -t 0.819565185 -s 2 -d -1 -p message -e 32 -c 2 -a 0 -i 9 -k RTR
r -t 0.819565222 -s 3 -d -1 -p message -e 32 -c 2 -a 0 -i 9 -k RTR
+ -t 0.852642458 -s 7 -d -1 -p message -e 32 -c 2 -a 0 -i 10 -k RTR 
- -t 0.852642458 -s 7 -d -1 -p message -e 32 -c 2 -a 0 -i 10 -k RTR
h -t 0.852642458 -s 7 -d -1 -p message -e 32 -c 2 -a 0 -i 10 -k RTR
r -t 0.853542541 -s 3 -d -1 -p message -e 32 -c 2 -a 0 -i 10 -k RTR
r -t 0.853542541 -s 6 -d -1 -p message -e 32 -c 2 -a 0 -i 10 -k RTR
r -t 0.853542541 -s 11 -d -1 -p message -e 32 -c 2 -a 0 -i 10 -k RTR
r -t 0.853542576 -s 10 -d -1 -p message -e 32 -c 2 -a 0 -i 10 -k RTR
r -t 0.853542576 -s 2 -d -1 -p message -e 32 -c 2 -a 0 -i 10 -k RTR
r -t 0.853542625 -s 5 -d -1 -p message -e 32 -c 2 -a 0 -i 10 -k RTR
r -t 0.853542625 -s 15 -d -1 -p message -e 32 -c 2 -a 0 -i 10 -k RTR
r -t 0.853542644 -s 14 -d -1 -p message -e 32 -c 2 -a 0 -i 10 -k RTR
r -t 0.853542644 -s 9 -d -1 -p message -e 32 -c 2 -a 0 -i 10 -k RTR
r -t 0.853542644 -s 1 -d -1 -p message -e 32 -c 2 -a 0 -i 10 -k RTR
r -t 0.853542694 -s 13 -d -1 -p message -e 32 -c 2 -a 0 -i 10 -k RTR
r -t 0.853542708 -s 4 -d -1 -p message -e 32 -c 2 -a 0 -i 10 -k RTR
r -t 0.853542708 -s 19 -d -1 -p message -e 32 -c 2 -a 0 -i 10 -k RTR
r -t 0.853542722 -s 18 -d -1 -p message -e 32 -c 2 -a 0 -i 10 -k RTR
r -t 0.853542722 -s 8 -d -1 -p message -e 32 -c 2 -a 0 -i 10 -k RTR
r -t 0.853542722 -s 0 -d -1 -p message -e 32 -c 2 -a 0 -i 10 -k RTR
r -t 0.853542759 -s 17 -d -1 -p message -e 32 -c 2 -a 0 -i 10 -k RTR
r -t 0.853542759 -s 12 -d -1 -p message -e 32 -c 2 -a 0 -i 10 -k RTR
r -t 0.853542812 -s 16 -d -1 -p message -e 32 -c 2 -a 0 -i 10 -k RTR
+ -t 0.940375874 -s 15 -d -1 -p message -e 32 -c 2 -a 0 -i 11 -k RTR 
- -t 0.940375874 -s 15 -d -1 -p message -e 32 -c 2 -a 0 -i 11 -k RTR
h -t 0.940375874 -s 15 -d -1 -p message -e 32 -c 2 -a 0 -i 11 -k RTR
r -t 0.941535958 -s 11 -d -1 -p message -e 32 -c 2 -a 0 -i 11 -k RTR
r -t 0.941535958 -s 14 -d -1 -p message -e 32 -c 2 -a 0 -i 11 -k RTR
r -t 0.941535958 -s 19 -d -1 -p message -e 32 -c 2 -a 0 -i 11 -k RTR
r -t 0.941535992 -s 18 -d -1 -p message -e 32 -c 2 -a 0 -i 11 -k RTR
r -t 0.941535992 -s 10 -d -1 -p message -e 32 -c 2 -a 0 -i 11 -k RTR
r -t 0.941536041 -s 7 -d -1 -p message -e 32 -c 2 -a 0 -i 11 -k RTR
r -t 0.941536041 -s 13 -d -1 -p message -e 32 -c 2 -a 0 -i 11 -k RTR
r -t 0.941536061 -s 6 -d -1 -p message -e 32 -c 2 -a 0 -i 11 -k RTR
r -t 0.941536061 -s 17 -d -1 -p message -e 32 -c 2 -a 0 -i 11 -k RTR
r -t 0.941536061 -s 9 -d -1 -p message -e 32 -c 2 -a 0 -i 11 -k RTR
r -t 0.941536110 -s 5 -d -1 -p message -e 32 -c 2 -a 0 -i 11 -k RTR
r -t 0.941536124 -s 3 -d -1 -p message -e 32 -c 2 -a 0 -i 11 -k RTR
r -t 0.941536124 -s 12 -d -1 -p message -e 32 -c 2 -a 0 -i 11 -k RTR
r -t 0.941536138 -s 2 -d -1 -p message -e 32 -c 2 -a 0 -i 11 -k RTR
r -t 0.941536138 -s 16 -d -1 -p message -e 32 -c 2 -a 0 -i 11 -k RTR
r -t 0.941536138 -s 8 -d -1 -p message -e 32 -c 2 -a 0 -i 11 -k RTR
r -t 0.941536175 -s 1 -d -1 -p message -e 32 -c 2 -a 0 -i 11 -k RTR
r -t 0.941536175 -s 4 -d -1 -p message -e 32 -c 2 -a 0 -i 11 -k RTR
r -t 0.941536228 -s 0 -d -1 -p message -e 32 -c 2 -a 0 -i 11 -k RTR
+ -t 1.000000000 -s 0 -d -1 -p tcp -e 40 -c 2 -a 0 -i 12 -k AGT 
- -t 1.000000000 -s 0 -d -1 -p tcp -e 40 -c 2 -a 0 -i 12 -k AGT
h -t 1.000000000 -s 0 -d -1 -p tcp -e 40 -c 2 -a 0 -i 12 -k AGT
+ -t 1.000000000 -s 0 -d 19 -p tcp -e 60 -c 2 -a 0 -i 12 -k RTR 
- -t 1.000000000 -s 0 -d 19 -p tcp -e 60 -c 2 -a 0 -i 12 -k RTR
h -t 1.000000000 -s 0 -d 19 -p tcp -e 60 -c 2 -a 0 -i 12 -k RTR
+ -t 1.000000000 -s 1 -d -1 -p tcp -e 40 -c 2 -a 0 -i 13 -k AGT 
- -t 1.000000000 -s 1 -d -1 -p tcp -e 40 -c 2 -a 0 -i 13 -k AGT
h -t 1.000000000 -s 1 -d -1 -p tcp -e 40 -c 2 -a 0 -i 13 -k AGT
+ -t 1.000000000 -s 2 -d -1 -p tcp -e 40 -c 2 -a 0 -i 14 -k AGT 
- -t 1.000000000 -s 2 -d -1 -p tcp -e 40 -c 2 -a 0 -i 14 -k AGT
h -t 1.000000000 -s 2 -d -1 -p tcp -e 40 -c 2 -a 0 -i 14 -k AGT
+ -t 1.000000000 -s 3 -d -1 -p tcp -e 40 -c 2 -a 0 -i 15 -k AGT 
- -t 1.000000000 -s 3 -d -1 -p tcp -e 40 -c 2 -a 0 -i 15 -k AGT
h -t 1.000000000 -s 3 -d -1 -p tcp -e 40 -c 2 -a 0 -i 15 -k AGT
+ -t 1.000000000 -s 4 -d -1 -p tcp -e 40 -c 2 -a 0 -i 16 -k AGT 
- -t 1.000000000 -s 4 -d -1 -p tcp -e 40 -c 2 -a 0 -i 16 -k AGT
h -t 1.000000000 -s 4 -d -1 -p tcp -e 40 -c 2 -a 0 -i 16 -k AGT
+ -t 1.000000000 -s 4 -d 15 -p tcp -e 60 -c 2 -a 0 -i 16 -k RTR 
- -t 1.000000000 -s 4 -d 15 -p tcp -e 60 -c 2 -a 0 -i 16 -k RTR
h -t 1.000000000 -s 4 -d 15 -p tcp -e 60 -c 2 -a 0 -i 16 -k RTR
+ -t 1.000000000 -s 5 -d -1 -p tcp -e 40 -c 2 -a 0 -i 17 -k AGT 
- -t 1.000000000 -s 5 -d -1 -p tcp -e 40 -c 2 -a 0 -i 17 -k AGT
h -t 1.000000000 -s 5 -d -1 -p tcp -e 40 -c 2 -a 0 -i 17 -k AGT
+ -t 1.000000000 -s 6 -d -1 -p tcp -e 40 -c 2 -a 0 -i 18 -k AGT 
- -t 1.000000000 -s 6 -d -1 -p tcp -e 40 -c 2 -a 0 -i 18 -k AGT
h -t 1.000000000 -s 6 -d -1 -p tcp -e 40 -c 2 -a 0 -i 18 -k AGT
+ -t 1.000000000 -s 6 -d 13 -p tcp -e 60 -c 2 -a 0 -i 18 -k RTR 
- -t 1.000000000 -s 6 -d 13 -p tcp -e 60 -c 2 -a 0 -i 18 -k RTR
h -t 1.000000000 -s 6 -d 13 -p tcp -e 60 -c 2 -a 0 -i 18 -k RTR
+ -t 1.000000000 -s 7 -d -1 -p tcp -e 40 -c 2 -a 0 -i 19 -k AGT 
- -t 1.000000000 -s 7 -d -1 -p tcp -e 40 -c 2 -a 0 -i 19 -k AGT
h -t 1.000000000 -s 7 -d -1 -p tcp -e 40 -c 2 -a 0 -i 19 -k AGT
+ -t 1.000000000 -s 7 -d 12 -p tcp -e 60 -c 2 -a 0 -i 19 -k RTR 
- -t 1.000000000 -s 7 -d 12 -p tcp -e 60 -c 2 -a 0 -i 19 -k RTR
h -t 1.000000000 -s 7 -d 12 -p tcp -e 60 -c 2 -a 0 -i 19 -k RTR
+ -t 1.000000000 -s 8 -d -1 -p tcp -e 40 -c 2 -a 0 -i 20 -k AGT 
- -t 1.000000000 -s 8 -d -1 -p tcp -e 40 -c 2 -a 0 -i 20 -k AGT
h -t 1.000000000 -s 8 -d -1 -p tcp -e 40 -c 2 -a 0 -i 20 -k AGT
+ -t 1.000000000 -s 8 -d 11 -p tcp -e 60 -c 2 -a 0 -i 20 -k RTR 
- -t 1.000000000 -s 8 -d 11 -p tcp -e 60 -c 2 -a 0 -i 20 -k RTR
h -t 1.000000000 -s 8 -d 11 -p tcp -e 60 -c 2 -a 0 -i 20 -k RTR
+ -t 1.000000000 -s 9 -d -1 -p tcp -e 40 -c 2 -a 0 -i 21 -k AGT 
- -t 1.000000000 -s 9 -d -1 -p tcp -e 40 -c 2 -a 0 -i 21 -k AGT
h -t 1.000000000 -s 9 -d -1 -p tcp -e 40 -c 2 -a 0 -i 21 -k AGT
r -t 1.007586586 -s 15 -d 15 -p tcp -e 60 -c 2 -a 0 -i 16 -k AGT
+ -t 1.007586586 -s 15 -d -1 -p ack -e 40 -c 2 -a 0 -i 22 -k AGT 
- -t 1.007586586 -s 15 -d -1 -p ack -e 40 -c 2 -a 0 -i 22 -k AGT
h -t 1.007586586 -s 15 -d -1 -p ack -e 40 -c 2 -a 0 -i 22 -k AGT
r -t 1.013528930 -s 11 -d 11 -p tcp -e 60 -c 2 -a 0 -i 20 -k AGT
+ -t 1.013528930 -s 11 -d -1 -p ack -e 40 -c 2 -a 0 -i 23 -k AGT 
- -t 1.013528930 -s 11 -d -1 -p ack -e 40 -c 2 -a 0 -i 23 -k AGT
h -t 1.013528930 -s 11 -d -1 -p ack -e 40 -c 2 -a 0 -i 23 -k AGT
+ -t 1.013528930 -s 11 -d 8 -p ack -e 60 -c 2 -a 0 -i 23 -k RTR 
- -t 1.013528930 -s 11 -d 8 -p ack -e 60 -c 2 -a 0 -i 23 -k RTR
h -t 1.013528930 -s 11 -d 8 -p ack -e 60 -c 2 -a 0 -i 23 -k RTR
r -t 1.015573680 -s 8 -d 8 -p ack -e 60 -c 2 -a 0 -i 23 -k AGT
+ -t 1.015573680 -s 8 -d -1 -p tcp -e 1040 -c 2 -a 0 -i 24 -k AGT 
- -t 1.015573680 -s 8 -d -1 -p tcp -e 1040 -c 2 -a 0 -i 24 -k AGT
h -t 1.015573680 -s 8 -d -1 -p tcp -e 1040 -c 2 -a 0 -i 24 -k AGT
+ -t 1.015573680 -s 8 -d 11 -p tcp -e 1060 -c 2 -a 0 -i 24 -k RTR 
- -t 1.015573680 -s 8 -d 11 -p tcp -e 1060 -c 2 -a 0 -i 24 -k RTR
h -t 1.015573680 -s 8 -d 11 -p tcp -e 1060 -c 2 -a 0 -i 24 -k RTR
+ -t 1.015573680 -s 8 -d -1 -p tcp -e 1040 -c 2 -a 0 -i 25 -k AGT 
- -t 1.015573680 -s 8 -d -1 -p tcp -e 1040 -c 2 -a 0 -i 25 -k AGT
h -t 1.015573680 -s 8 -d -1 -p tcp -e 1040 -c 2 -a 0 -i 25 -k AGT
+ -t 1.015573680 -s 8 -d 11 -p tcp -e 1060 -c 2 -a 0 -i 25 -k RTR 
- -t 1.015573680 -s 8 -d 11 -p tcp -e 1060 -c 2 -a 0 -i 25 -k RTR
h -t 1.015573680 -s 8 -d 11 -p tcp -e 1060 -c 2 -a 0 -i 25 -k RTR
r -t 1.017598425 -s 13 -d 13 -p tcp -e 60 -c 2 -a 0 -i 18 -k AGT
+ -t 1.017598425 -s 13 -d -1 -p ack -e 40 -c 2 -a 0 -i 26 -k AGT 
- -t 1.017598425 -s 13 -d -1 -p ack -e 40 -c 2 -a 0 -i 26 -k AGT
h -t 1.017598425 -s 13 -d -1 -p ack -e 40 -c 2 -a 0 -i 26 -k AGT
r -t 1.027723293 -s 11 -d 11 -p tcp -e 1060 -c 2 -a 0 -i 24 -k AGT
+ -t 1.027723293 -s 11 -d -1 -p ack -e 40 -c 2 -a 0 -i 27 -k AGT 
- -t 1.027723293 -s 11 -d -1 -p ack -e 40 -c 2 -a 0 -i 27 -k AGT
h -t 1.027723293 -s 11 -d -1 -p ack -e 40 -c 2 -a 0 -i 27 -k AGT
+ -t 1.027723293 -s 11 -d 8 -p ack -e 60 -c 2 -a 0 -i 27 -k RTR 
- -t 1.027723293 -s 11 -d 8 -p ack -e 60 -c 2 -a 0 -i 27 -k RTR
h -t 1.027723293 -s 11 -d 8 -p ack -e 60 -c 2 -a 0 -i 27 -k RTR
r -t 1.038028293 -s 11 -d 11 -p tcp -e 1060 -c 2 -a 0 -i 25 -k AGT
+ -t 1.038028293 -s 11 -d -1 -p ack -e 40 -c 2 -a 0 -i 29 -k AGT 
- -t 1.038028293 -s 11 -d -1 -p ack -e 40 -c 2 -a 0 -i 29 -k AGT
h -t 1.038028293 -s 11 -d -1 -p ack -e 40 -c 2 -a 0 -i 29 -k AGT
+ -t 1.038028293 -s 11 -d 8 -p ack -e 60 -c 2 -a 0 -i 29 -k RTR 
- -t 1.038028293 -s 11 -d 8 -p ack -e 60 -c 2 -a 0 -i 29 -k RTR
h -t 1.038028293 -s 11 -d 8 -p ack -e 60 -c 2 -a 0 -i 29 -k RTR
+ -t 1.039009780 -s 14 -d -1 -p message -e 32 -c 2 -a 0 -i 28 -k RTR 
- -t 1.039009780 -s 14 -d -1 -p message -e 32 -c 2 -a 0 -i 28 -k RTR
h -t 1.039009780 -s 14 -d -1 -p message -e 32 -c 2 -a 0 -i 28 -k RTR
r -t 1.040053043 -s 8 -d 8 -p ack -e 60 -c 2 -a 0 -i 27 -k AGT
+ -t 1.040053043 -s 8 -d -1 -p tcp -e 1040 -c 2 -a 0 -i 30 -k AGT 
- -t 1.040053043 -s 8 -d -1 -p tcp -e 1040 -c 2 -a 0 -i 30 -k AGT
h -t 1.040053043 -s 8 -d -1 -p tcp -e 1040 -c 2 -a 0 -i 30 -k AGT
+ -t 1.040053043 -s 8 -d 11 -p tcp -e 1060 -c 2 -a 0 -i 30 -k RTR 
- -t 1.040053043 -s 8 -d 11 -p tcp -e 1060 -c 2 -a 0 -i 30 -k RTR
h -t 1.040053043 -s 8 -d 11 -p tcp -e 1060 -c 2 -a 0 -i 30 -k RTR
+ -t 1.040053043 -s 8 -d -1 -p tcp -e 1040 -c 2 -a 0 -i 31 -k AGT 
- -t 1.040053043 -s 8 -d -1 -p tcp -e 1040 -c 2 -a 0 -i 31 -k AGT
h -t 1.040053043 -s 8 -d -1 -p tcp -e 1040 -c 2 -a 0 -i 31 -k AGT
+ -t 1.040053043 -s 8 -d 11 -p tcp -e 1060 -c 2 -a 0 -i 31 -k RTR 
- -t 1.040053043 -s 8 -d 11 -p tcp -e 1060 -c 2 -a 0 -i 31 -k RTR
h -t 1.040053043 -s 8 -d 11 -p tcp -e 1060 -c 2 -a 0 -i 31 -k RTR
r -t 1.042058043 -s 8 -d 8 -p ack -e 60 -c 2 -a 0 -i 29 -k AGT
+ -t 1.042058043 -s 8 -d -1 -p tcp -e 1040 -c 2 -a 0 -i 32 -k AGT 
- -t 1.042058043 -s 8 -d -1 -p tcp -e 1040 -c 2 -a 0 -i 32 -k AGT
h -t 1.042058043 -s 8 -d -1 -p tcp -e 1040 -c 2 -a 0 -i 32 -k AGT
+ -t 1.042058043 -s 8 -d 11 -p tcp -e 1060 -c 2 -a 0 -i 32 -k RTR 
- -t 1.042058043 -s 8 -d 11 -p tcp -e 1060 -c 2 -a 0 -i 32 -k RTR
h -t 1.042058043 -s 8 -d 11 -p tcp -e 1060 -c 2 -a 0 -i 32 -k RTR
+ -t 1.042058043 -s 8 -d -1 -p tcp -e 1040 -c 2 -a 0 -i 33 -k AGT 
- -t 1.042058043 -s 8 -d -1 -p tcp -e 1040 -c 2 -a 0 -i 33 -k AGT
h -t 1.042058043 -s 8 -d -1 -p tcp -e 1040 -c 2 -a 0 -i 33 -k AGT
+ -t 1.042058043 -s 8 -d 11 -p tcp -e 1060 -c 2 -a 0 -i 33 -k RTR 
- -t 1.042058043 -s 8 -d 11 -p tcp -e 1060 -c 2 -a 0 -i 33 -k RTR
h -t 1.042058043 -s 8 -d 11 -p tcp -e 1060 -c 2 -a 0 -i 33 -k RTR
r -t 1.043282312 -s 10 -d -1 -p message -e 32 -c 2 -a 0 -i 28 -k RTR
r -t 1.043282312 -s 13 -d -1 -p message -e 32 -c 2 -a 0 -i 28 -k RTR
r -t 1.043282312 -s 18 -d -1 -p message -e 32 -c 2 -a 0 -i 28 -k RTR
r -t 1.043282312 -s 15 -d -1 -p message -e 32 -c 2 -a 0 -i 28 -k RTR
r -t 1.043282347 -s 17 -d -1 -p message -e 32 -c 2 -a 0 -i 28 -k RTR
r -t 1.043282347 -s 9 -d -1 -p message -e 32 -c 2 -a 0 -i 28 -k RTR
r -t 1.043282347 -s 11 -d -1 -p message -e 32 -c 2 -a 0 -i 28 -k RTR
r -t 1.043282347 -s 19 -d -1 -p message -e 32 -c 2 -a 0 -i 28 -k RTR
r -t 1.043282396 -s 6 -d -1 -p message -e 32 -c 2 -a 0 -i 28 -k RTR
r -t 1.043282396 -s 12 -d -1 -p message -e 32 -c 2 -a 0 -i 28 -k RTR
r -t 1.043282415 -s 5 -d -1 -p message -e 32 -c 2 -a 0 -i 28 -k RTR
+ -t 1.043282415 -s 5 -d 14 -p tcp -e 80 -c 2 -a 0 -i 17 -k RTR 
- -t 1.043282415 -s 5 -d 14 -p tcp -e 80 -c 2 -a 0 -i 17 -k RTR
h -t 1.043282415 -s 5 -d 14 -p tcp -e 80 -c 2 -a 0 -i 17 -k RTR
r -t 1.043282415 -s 16 -d -1 -p message -e 32 -c 2 -a 0 -i 28 -k RTR
r -t 1.043282415 -s 8 -d -1 -p message -e 32 -c 2 -a 0 -i 28 -k RTR
r -t 1.043282415 -s 7 -d -1 -p message -e 32 -c 2 -a 0 -i 28 -k RTR
r -t 1.043282465 -s 4 -d -1 -p message -e 32 -c 2 -a 0 -i 28 -k RTR
r -t 1.043282479 -s 2 -d -1 -p message -e 32 -c 2 -a 0 -i 28 -k RTR
r -t 1.043282493 -s 1 -d -1 -p message -e 32 -c 2 -a 0 -i 28 -k RTR
r -t 1.043282493 -s 3 -d -1 -p message -e 32 -c 2 -a 0 -i 28 -k RTR
r -t 1.043282530 -s 0 -d -1 -p message -e 32 -c 2 -a 0 -i 28 -k RTR
r -t 1.055570029 -s 11 -d 11 -p tcp -e 1060 -c 2 -a 0 -i 30 -k AGT
+ -t 1.055570029 -s 11 -d -1 -p ack -e 40 -c 2 -a 0 -i 34 -k AGT 
- -t 1.055570029 -s 11 -d -1 -p ack -e 40 -c 2 -a 0 -i 34 -k AGT
h -t 1.055570029 -s 11 -d -1 -p ack -e 40 -c 2 -a 0 -i 34 -k AGT
+ -t 1.055570029 -s 11 -d 8 -p ack -e 60 -c 2 -a 0 -i 34 -k RTR 
- -t 1.055570029 -s 11 -d 8 -p ack -e 60 -c 2 -a 0 -i 34 -k RTR
h -t 1.055570029 -s 11 -d 8 -p ack -e 60 -c 2 -a 0 -i 34 -k RTR
r -t 1.065575029 -s 11 -d 11 -p tcp -e 1060 -c 2 -a 0 -i 31 -k AGT
+ -t 1.065575029 -s 11 -d -1 -p ack -e 40 -c 2 -a 0 -i 35 -k AGT 
- -t 1.065575029 -s 11 -d -1 -p ack -e 40 -c 2 -a 0 -i 35 -k AGT
h -t 1.065575029 -s 11 -d -1 -p ack -e 40 -c 2 -a 0 -i 35 -k AGT
+ -t 1.065575029 -s 11 -d 8 -p ack -e 60 -c 2 -a 0 -i 35 -k RTR 
- -t 1.065575029 -s 11 -d 8 -p ack -e 60 -c 2 -a 0 -i 35 -k RTR
h -t 1.065575029 -s 11 -d 8 -p ack -e 60 -c 2 -a 0 -i 35 -k RTR
r -t 1.075580029 -s 11 -d 11 -p tcp -e 1060 -c 2 -a 0 -i 32 -k AGT
+ -t 1.075580029 -s 11 -d -1 -p ack -e 40 -c 2 -a 0 -i 36 -k AGT 
- -t 1.075580029 -s 11 -d -1 -p ack -e 40 -c 2 -a 0 -i 36 -k AGT
h -t 1.075580029 -s 11 -d -1 -p ack -e 40 -c 2 -a 0 -i 36 -k AGT
+ -t 1.075580029 -s 11 -d 8 -p ack -e 60 -c 2 -a 0 -i 36 -k RTR 
- -t 1.075580029 -s 11 -d 8 -p ack -e 60 -c 2 -a 0 -i 36 -k RTR
h -t 1.075580029 -s 11 -d 8 -p ack -e 60 -c 2 -a 0 -i 36 -k RTR
r -t 1.085625029 -s 11 -d 11 -p tcp -e 1060 -c 2 -a 0 -i 33 -k AGT
+ -t 1.085625029 -s 11 -d -1 -p ack -e 40 -c 2 -a 0 -i 37 -k AGT 
- -t 1.085625029 -s 11 -d -1 -p ack -e 40 -c 2 -a 0 -i 37 -k AGT
h -t 1.085625029 -s 11 -d -1 -p ack -e 40 -c 2 -a 0 -i 37 -k AGT
+ -t 1.085625029 -s 11 -d 8 -p ack -e 60 -c 2 -a 0 -i 37 -k RTR 
- -t 1.085625029 -s 11 -d 8 -p ack -e 60 -c 2 -a 0 -i 37 -k RTR
h -t 1.085625029 -s 11 -d 8 -p ack -e 60 -c 2 -a 0 -i 37 -k RTR