+ 0.1 4 2 tcp 40 ------- 2 4.0 1.0 0 0
- 0.1 4 2 tcp 40 ------- 2 4.0 1.0 0 0
+ 0.1 0 2 tcp 40 ------- 1 0.0 3.0 0 1
- 0.1 0 2 tcp 40 ------- 1 0.0 3.0 0 1
r 0.11016 4 2 tcp 40 ------- 2 4.0 1.0 0 0
+ 0.11016 2 1 tcp 40 ------- 2 4.0 1.0 0 0
- 0.11016 2 1 tcp 40 ------- 2 4.0 1.0 0 0
r 0.11016 0 2 tcp 40 ------- 1 0.0 3.0 0 1
+ 0.11016 2 3 tcp 40 ------- 1 0.0 3.0 0 1
- 0.11016 2 3 tcp 40 ------- 1 0.0 3.0 0 1
r 0.12032 2 1 tcp 40 ------- 2 4.0 1.0 0 0
+ 0.12032 1 2 ack 40 ------- 2 1.0 4.0 0 2
- 0.12032 1 2 ack 40 ------- 2 1.0 4.0 0 2
r 0.12032 2 3 tcp 40 ------- 1 0.0 3.0 0 1
+ 0.12032 3 2 ack 40 ------- 1 3.0 0.0 0 3
- 0.12032 3 2 ack 40 ------- 1 3.0 0.0 0 3
r 0.13048 1 2 ack 40 ------- 2 1.0 4.0 0 2
+ 0.13048 2 4 ack 40 ------- 2 1.0 4.0 0 2
- 0.13048 2 4 ack 40 ------- 2 1.0 4.0 0 2
r 0.13048 3 2 ack 40 ------- 1 3.0 0.0 0 3
+ 0.13048 2 0 ack 40 ------- 1 3.0 0.0 0 3
- 0.13048 2 0 ack 40 ------- 1 3.0 0.0 0 3
r 0.14064 2 4 ack 40 ------- 2 1.0 4.0 0 2
+ 0.14064 4 2 tcp 1040 ------- 2 4.0 1.0 1 4
- 0.14064 4 2 tcp 1040 ------- 2 4.0 1.0 1 4
+ 0.14064 4 2 tcp 1040 ------- 2 4.0 1.0 2 5
r 0.14064 2 0 ack 40 ------- 1 3.0 0.0 0 3
+ 0.14064 0 2 tcp 1040 ------- 1 0.0 3.0 1 6
- 0.14064 0 2 tcp 1040 ------- 1 0.0 3.0 1 6
+ 0.14064 0 2 tcp 1040 ------- 1 0.0 3.0 2 7
- 0.1448 4 2 tcp 1040 ------- 2 4.0 1.0 2 5
- 0.1448 0 2 tcp 1040 ------- 1 0.0 3.0 2 7
r 0.1548 4 2 tcp 1040 ------- 2 4.0 1.0 1 4
+ 0.1548 2 1 tcp 1040 ------- 2 4.0 1.0 1 4
- 0.1548 2 1 tcp 1040 ------- 2 4.0 1.0 1 4
r 0.1548 0 2 tcp 1040 ------- 1 0.0 3.0 1 6
+ 0.1548 2 3 tcp 1040 ------- 1 0.0 3.0 1 6
- 0.1548 2 3 tcp 1040 ------- 1 0.0 3.0 1 6
r 0.15896 4 2 tcp 1040 ------- 2 4.0 1.0 2 5
+ 0.15896 2 1 tcp 1040 ------- 2 4.0 1.0 2 5
r 0.15896 0 2 tcp 1040 ------- 1 0.0 3.0 2 7
+ 0.15896 2 3 tcp 1040 ------- 1 0.0 3.0 2 7
- 0.15896 2 1 tcp 1040 ------- 2 4.0 1.0 2 5
- 0.15896 2 3 tcp 1040 ------- 1 0.0 3.0 2 7
r 0.16896 2 1 tcp 1040 ------- 2 4.0 1.0 1 4
+ 0.16896 1 2 ack 40 ------- 2 1.0 4.0 1 8
- 0.16896 1 2 ack 40 ------- 2 1.0 4.0 1 8
r 0.16896 2 3 tcp 1040 ------- 1 0.0 3.0 1 6
+ 0.16896 3 2 ack 40 ------- 1 3.0 0.0 1 9
- 0.16896 3 2 ack 40 ------- 1 3.0 0.0 1 9
r 0.17312 2 1 tcp 1040 ------- 2 4.0 1.0 2 5
+ 0.17312 1 2 ack 40 ------- 2 1.0 4.0 2 10
- 0.17312 1 2 ack 40 ------- 2 1.0 4.0 2 10
r 0.17312 2 3 tcp 1040 ------- 1 0.0 3.0 2 7
+ 0.17312 3 2 ack 40 ------- 1 3.0 0.0 2 11
- 0.17312 3 2 ack 40 ------- 1 3.0 0.0 2 11
r 0.17912 1 2 ack 40 ------- 2 1.0 4.0 1 8
+ 0.17912 2 4 ack 40 ------- 2 1.0 4.0 1 8
- 0.17912 2 4 ack 40 ------- 2 1.0 4.0 1 8
r 0.17912 3 2 ack 40 ------- 1 3.0 0.0 1 9
+ 0.17912 2 0 ack 40 ------- 1 3.0 0.0 1 9
- 0.17912 2 0 ack 40 ------- 1 3.0 0.0 1 9
r 0.18328 1 2 ack 40 ------- 2 1.0 4.0 2 10
+ 0.18328 2 4 ack 40 ------- 2 1.0 4.0 2 10
- 0.18328 2 4 ack 40 ------- 2 1.0 4.0 2 10
r 0.18328 3 2 ack 40 ------- 1 3.0 0.0 2 11
+ 0.18328 2 0 ack 40 ------- 1 3.0 0.0 2 11
- 0.18328 2 0 ack 40 ------- 1 3.0 0.0 2 11
r 0.18928 2 4 ack 40 ------- 2 1.0 4.0 1 8
+ 0.18928 4 2 tcp 1040 ------- 2 4.0 1.0 3 12
- 0.18928 4 2 tcp 1040 ------- 2 4.0 1.0 3 12
+ 0.18928 4 2 tcp 1040 ------- 2 4.0 1.0 4 13
r 0.18928 2 0 ack 40 ------- 1 3.0 0.0 1 9
+ 0.18928 0 2 tcp 1040 ------- 1 0.0 3.0 3 14
- 0.18928 0 2 tcp 1040 ------- 1 0.0 3.0 3 14
+ 0.18928 0 2 tcp 1040 ------- 1 0.0 3.0 4 15
r 0.19344 2 4 ack 40 ------- 2 1.0 4.0 2 10
+ 0.19344 4 2 tcp 1040 ------- 2 4.0 1.0 5 16
+ 0.19344 4 2 tcp 1040 ------- 2 4.0 1.0 6 17
r 0.19344 2 0 ack 40 ------- 1 3.0 0.0 2 11
+ 0.19344 0 2 tcp 1040 ------- 1 0.0 3.0 5 18
+ 0.19344 0 2 tcp 1040 ------- 1 0.0 3.0 6 19
- 0.19344 4 2 tcp 1040 ------- 2 4.0 1.0 4 13
- 0.19344 0 2 tcp 1040 ------- 1 0.0 3.0 4 15
- 0.1976 4 2 tcp 1040 ------- 2 4.0 1.0 5 16
- 0.1976 0 2 tcp 1040 ------- 1 0.0 3.0 5 18
- 0.20176 4 2 tcp 1040 ------- 2 4.0 1.0 6 17
- 0.20176 0 2 tcp 1040 ------- 1 0.0 3.0 6 19
r 0.20344 4 2 tcp 1040 ------- 2 4.0 1.0 3 12
+ 0.20344 2 1 tcp 1040 ------- 2 4.0 1.0 3 12
- 0.20344 2 1 tcp 1040 ------- 2 4.0 1.0 3 12
r 0.20344 0 2 tcp 1040 ------- 1 0.0 3.0 3 14
+ 0.20344 2 3 tcp 1040 ------- 1 0.0 3.0 3 14
- 0.20344 2 3 tcp 1040 ------- 1 0.0 3.0 3 14
r 0.2076 4 2 tcp 1040 ------- 2 4.0 1.0 4 13
+ 0.2076 2 1 tcp 1040 ------- 2 4.0 1.0 4 13
r 0.2076 0 2 tcp 1040 ------- 1 0.0 3.0 4 15
+ 0.2076 2 3 tcp 1040 ------- 1 0.0 3.0 4 15
- 0.2076 2 1 tcp 1040 ------- 2 4.0 1.0 4 13
- 0.2076 2 3 tcp 1040 ------- 1 0.0 3.0 4 15
r 0.21176 4 2 tcp 1040 ------- 2 4.0 1.0 5 16
+ 0.21176 2 1 tcp 1040 ------- 2 4.0 1.0 5 16
r 0.21176 0 2 tcp 1040 ------- 1 0.0 3.0 5 18
+ 0.21176 2 3 tcp 1040 ------- 1 0.0 3.0 5 18
- 0.21176 2 1 tcp 1040 ------- 2 4.0 1.0 5 16
- 0.21176 2 3 tcp 1040 ------- 1 0.0 3.0 5 18
r 0.21592 4 2 tcp 1040 ------- 2 4.0 1.0 6 17
+ 0.21592 2 1 tcp 1040 ------- 2 4.0 1.0 6 17
r 0.21592 0 2 tcp 1040 ------- 1 0.0 3.0 6 19
+ 0.21592 2 3 tcp 1040 ------- 1 0.0 3.0 6 19
- 0.21592 2 1 tcp 1040 ------- 2 4.0 1.0 6 17
- 0.21592 2 3 tcp 1040 ------- 1 0.0 3.0 6 19
r 0.2176 2 1 tcp 1040 ------- 2 4.0 1.0 3 12
+ 0.2176 1 2 ack 40 ------- 2 1.0 4.0 3 20
- 0.2176 1 2 ack 40 ------- 2 1.0 4.0 3 20
r 0.2176 2 3 tcp 1040 ------- 1 0.0 3.0 3 14
+ 0.2176 3 2 ack 40 ------- 1 3.0 0.0 3 21
- 0.2176 3 2 ack 40 ------- 1 3.0 0.0 3 21
r 0.22176 2 1 tcp 1040 ------- 2 4.0 1.0 4 13
+ 0.22176 1 2 ack 40 ------- 2 1.0 4.0 4 22
- 0.22176 1 2 ack 40 ------- 2 1.0 4.0 4 22
r 0.22176 2 3 tcp 1040 ------- 1 0.0 3.0 4 15
+ 0.22176 3 2 ack 40 ------- 1 3.0 0.0 4 23
- 0.22176 3 2 ack 40 ------- 1 3.0 0.0 4 23
r 0.22592 2 1 tcp 1040 ------- 2 4.0 1.0 5 16
+ 0.22592 1 2 ack 40 ------- 2 1.0 4.0 5 24
- 0.22592 1 2 ack 40 ------- 2 1.0 4.0 5 24
r 0.22592 2 3 tcp 1040 ------- 1 0.0 3.0 5 18
+ 0.22592 3 2 ack 40 ------- 1 3.0 0.0 5 25
- 0.22592 3 2 ack 40 ------- 1 3.0 0.0 5 25
r 0.22776 1 2 ack 40 ------- 2 1.0 4.0 3 20
+ 0.22776 2 4 ack 40 ------- 2 1.0 4.0 3 20
- 0.22776 2 4 ack 40 ------- 2 1.0 4.0 3 20
r 0.22776 3 2 ack 40 ------- 1 3.0 0.0 3 21
+ 0.22776 2 0 ack 40 ------- 1 3.0 0.0 3 21
- 0.22776 2 0 ack 40 ------- 1 3.0 0.0 3 21
r 0.23008 2 1 tcp 1040 ------- 2 4.0 1.0 6 17
+ 0.23008 1 2 ack 40 ------- 2 1.0 4.0 6 26
- 0.23008 1 2 ack 40 ------- 2 1.0 4.0 6 26
r 0.23008 2 3 tcp 1040 ------- 1 0.0 3.0 6 19
+ 0.23008 3 2 ack 40 ------- 1 3.0 0.0 6 27
- 0.23008 3 2 ack 40 ------- 1 3.0 0.0 6 27
r 0.23192 1 2 ack 40 ------- 2 1.0 4.0 4 22
+ 0.23192 2 4 ack 40 ------- 2 1.0 4.0 4 22
- 0.23192 2 4 ack 40 ------- 2 1.0 4.0 4 22
r 0.23192 3 2 ack 40 ------- 1 3.0 0.0 4 23
+ 0.23192 2 0 ack 40 ------- 1 3.0 0.0 4 23
- 0.23192 2 0 ack 40 ------- 1 3.0 0.0 4 23
r 0.23608 1 2 ack 40 ------- 2 1.0 4.0 5 24
+ 0.23608 2 4 ack 40 ------- 2 1.0 4.0 5 24
- 0.23608 2 4 ack 40 ------- 2 1.0 4.0 5 24
r 0.23608 3 2 ack 40 ------- 1 3.0 0.0 5 25
+ 0.23608 2 0 ack 40 ------- 1 3.0 0.0 5 25
- 0.23608 2 0 ack 40 ------- 1 3.0 0.0 5 25
r 0.23792 2 4 ack 40 ------- 2 1.0 4.0 3 20
+ 0.23792 4 2 tcp 1040 ------- 2 4.0 1.0 7 28
- 0.23792 4 2 tcp 1040 ------- 2 4.0 1.0 7 28
+ 0.23792 4 2 tcp 1040 ------- 2 4.0 1.0 8 29
r 0.23792 2 0 ack 40 ------- 1 3.0 0.0 3 21
+ 0.23792 0 2 tcp 1040 ------- 1 0.0 3.0 7 30
- 0.23792 0 2 tcp 1040 ------- 1 0.0 3.0 7 30
+ 0.23792 0 2 tcp 1040 ------- 1 0.0 3.0 8 31
r 0.24024 1 2 ack 40 ------- 2 1.0 4.0 6 26
+ 0.24024 2 4 ack 40 ------- 2 1.0 4.0 6 26
- 0.24024 2 4 ack 40 ------- 2 1.0 4.0 6 26
r 0.24024 3 2 ack 40 ------- 1 3.0 0.0 6 27
+ 0.24024 2 0 ack 40 ------- 1 3.0 0.0 6 27
- 0.24024 2 0 ack 40 ------- 1 3.0 0.0 6 27
r 0.24208 2 4 ack 40 ------- 2 1.0 4.0 4 22
+ 0.24208 4 2 tcp 1040 ------- 2 4.0 1.0 9 32
+ 0.24208 4 2 tcp 1040 ------- 2 4.0 1.0 10 33
r 0.24208 2 0 ack 40 ------- 1 3.0 0.0 4 23
+ 0.24208 0 2 tcp 1040 ------- 1 0.0 3.0 9 34
+ 0.24208 0 2 tcp 1040 ------- 1 0.0 3.0 10 35
- 0.24208 4 2 tcp 1040 ------- 2 4.0 1.0 8 29
- 0.24208 0 2 tcp 1040 ------- 1 0.0 3.0 8 31
r 0.24624 2 4 ack 40 ------- 2 1.0 4.0 5 24
+ 0.24624 4 2 tcp 1040 ------- 2 4.0 1.0 11 36
+ 0.24624 4 2 tcp 1040 ------- 2 4.0 1.0 12 37
r 0.24624 2 0 ack 40 ------- 1 3.0 0.0 5 25
+ 0.24624 0 2 tcp 1040 ------- 1 0.0 3.0 11 38
+ 0.24624 0 2 tcp 1040 ------- 1 0.0 3.0 12 39
- 0.24624 4 2 tcp 1040 ------- 2 4.0 1.0 9 32
- 0.24624 0 2 tcp 1040 ------- 1 0.0 3.0 9 34
r 0.2504 2 4 ack 40 ------- 2 1.0 4.0 6 26
+ 0.2504 4 2 tcp 1040 ------- 2 4.0 1.0 13 40
+ 0.2504 4 2 tcp 1040 ------- 2 4.0 1.0 14 41
r 0.2504 2 0 ack 40 ------- 1 3.0 0.0 6 27
+ 0.2504 0 2 tcp 1040 ------- 1 0.0 3.0 13 42
+ 0.2504 0 2 tcp 1040 ------- 1 0.0 3.0 14 43
- 0.2504 4 2 tcp 1040 ------- 2 4.0 1.0 10 33
- 0.2504 0 2 tcp 1040 ------- 1 0.0 3.0 10 35
r 0.25208 4 2 tcp 1040 ------- 2 4.0 1.0 7 28
+ 0.25208 2 1 tcp 1040 ------- 2 4.0 1.0 7 28
- 0.25208 2 1 tcp 1040 ------- 2 4.0 1.0 7 28
r 0.25208 0 2 tcp 1040 ------- 1 0.0 3.0 7 30
+ 0.25208 2 3 tcp 1040 ------- 1 0.0 3.0 7 30
- 0.25208 2 3 tcp 1040 ------- 1 0.0 3.0 7 30
- 0.25456 4 2 tcp 1040 ------- 2 4.0 1.0 11 36
- 0.25456 0 2 tcp 1040 ------- 1 0.0 3.0 11 38
r 0.25624 4 2 tcp 1040 ------- 2 4.0 1.0 8 29
+ 0.25624 2 1 tcp 1040 ------- 2 4.0 1.0 8 29
r 0.25624 0 2 tcp 1040 ------- 1 0.0 3.0 8 31
+ 0.25624 2 3 tcp 1040 ------- 1 0.0 3.0 8 31
- 0.25624 2 1 tcp 1040 ------- 2 4.0 1.0 8 29
- 0.25624 2 3 tcp 1040 ------- 1 0.0 3.0 8 31
- 0.25872 4 2 tcp 1040 ------- 2 4.0 1.0 12 37
- 0.25872 0 2 tcp 1040 ------- 1 0.0 3.0 12 39
r 0.2604 4 2 tcp 1040 ------- 2 4.0 1.0 9 32
+ 0.2604 2 1 tcp 1040 ------- 2 4.0 1.0 9 32
r 0.2604 0 2 tcp 1040 ------- 1 0.0 3.0 9 34
+ 0.2604 2 3 tcp 1040 ------- 1 0.0 3.0 9 34
- 0.2604 2 1 tcp 1040 ------- 2 4.0 1.0 9 32
- 0.2604 2 3 tcp 1040 ------- 1 0.0 3.0 9 34
- 0.26288 4 2 tcp 1040 ------- 2 4.0 1.0 13 40
- 0.26288 0 2 tcp 1040 ------- 1 0.0 3.0 13 42
r 0.26456 4 2 tcp 1040 ------- 2 4.0 1.0 10 33
+ 0.26456 2 1 tcp 1040 ------- 2 4.0 1.0 10 33
- 0.26456 2 1 tcp 1040 ------- 2 4.0 1.0 10 33
r 0.26456 0 2 tcp 1040 ------- 1 0.0 3.0 10 35
+ 0.26456 2 3 tcp 1040 ------- 1 0.0 3.0 10 35
- 0.26456 2 3 tcp 1040 ------- 1 0.0 3.0 10 35
r 0.26624 2 1 tcp 1040 ------- 2 4.0 1.0 7 28
+ 0.26624 1 2 ack 40 ------- 2 1.0 4.0 7 44
- 0.26624 1 2 ack 40 ------- 2 1.0 4.0 7 44
r 0.26624 2 3 tcp 1040 ------- 1 0.0 3.0 7 30
+ 0.26624 3 2 ack 40 ------- 1 3.0 0.0 7 45
- 0.26624 3 2 ack 40 ------- 1 3.0 0.0 7 45
- 0.26704 4 2 tcp 1040 ------- 2 4.0 1.0 14 41
- 0.26704 0 2 tcp 1040 ------- 1 0.0 3.0 14 43
r 0.26872 4 2 tcp 1040 ------- 2 4.0 1.0 11 36
+ 0.26872 2 1 tcp 1040 ------- 2 4.0 1.0 11 36
r 0.26872 0 2 tcp 1040 ------- 1 0.0 3.0 11 38
+ 0.26872 2 3 tcp 1040 ------- 1 0.0 3.0 11 38
- 0.26872 2 1 tcp 1040 ------- 2 4.0 1.0 11 36
- 0.26872 2 3 tcp 1040 ------- 1 0.0 3.0 11 38
r 0.2704 2 1 tcp 1040 ------- 2 4.0 1.0 8 29
+ 0.2704 1 2 ack 40 ------- 2 1.0 4.0 8 46
- 0.2704 1 2 ack 40 ------- 2 1.0 4.0 8 46
r 0.2704 2 3 tcp 1040 ------- 1 0.0 3.0 8 31
+ 0.2704 3 2 ack 40 ------- 1 3.0 0.0 8 47
- 0.2704 3 2 ack 40 ------- 1 3.0 0.0 8 47
r 0.27288 4 2 tcp 1040 ------- 2 4.0 1.0 12 37
+ 0.27288 2 1 tcp 1040 ------- 2 4.0 1.0 12 37
r 0.27288 0 2 tcp 1040 ------- 1 0.0 3.0 12 39
+ 0.27288 2 3 tcp 1040 ------- 1 0.0 3.0 12 39
- 0.27288 2 1 tcp 1040 ------- 2 4.0 1.0 12 37
- 0.27288 2 3 tcp 1040 ------- 1 0.0 3.0 12 39
r 0.27456 2 1 tcp 1040 ------- 2 4.0 1.0 9 32
+ 0.27456 1 2 ack 40 ------- 2 1.0 4.0 9 48
- 0.27456 1 2 ack 40 ------- 2 1.0 4.0 9 48
r 0.27456 2 3 tcp 1040 ------- 1 0.0 3.0 9 34
+ 0.27456 3 2 ack 40 ------- 1 3.0 0.0 9 49
- 0.27456 3 2 ack 40 ------- 1 3.0 0.0 9 49
r 0.2764 1 2 ack 40 ------- 2 1.0 4.0 7 44
+ 0.2764 2 4 ack 40 ------- 2 1.0 4.0 7 44
- 0.2764 2 4 ack 40 ------- 2 1.0 4.0 7 44
r 0.2764 3 2 ack 40 ------- 1 3.0 0.0 7 45
+ 0.2764 2 0 ack 40 ------- 1 3.0 0.0 7 45
- 0.2764 2 0 ack 40 ------- 1 3.0 0.0 7 45
r 0.27704 4 2 tcp 1040 ------- 2 4.0 1.0 13 40
+ 0.27704 2 1 tcp 1040 ------- 2 4.0 1.0 13 40
r 0.27704 0 2 tcp 1040 ------- 1 0.0 3.0 13 42
+ 0.27704 2 3 tcp 1040 ------- 1 0.0 3.0 13 42
- 0.27704 2 1 tcp 1040 ------- 2 4.0 1.0 13 40
- 0.27704 2 3 tcp 1040 ------- 1 0.0 3.0 13 42
r 0.27872 2 1 tcp 1040 ------- 2 4.0 1.0 10 33
+ 0.27872 1 2 ack 40 ------- 2 1.0 4.0 10 50
- 0.27872 1 2 ack 40 ------- 2 1.0 4.0 10 50
r 0.27872 2 3 tcp 1040 ------- 1 0.0 3.0 10 35
+ 0.27872 3 2 ack 40 ------- 1 3.0 0.0 10 51
- 0.27872 3 2 ack 40 ------- 1 3.0 0.0 10 51
r 0.28056 1 2 ack 40 ------- 2 1.0 4.0 8 46
+ 0.28056 2 4 ack 40 ------- 2 1.0 4.0 8 46
- 0.28056 2 4 ack 40 ------- 2 1.0 4.0 8 46
r 0.28056 3 2 ack 40 ------- 1 3.0 0.0 8 47
+ 0.28056 2 0 ack 40 ------- 1 3.0 0.0 8 47
- 0.28056 2 0 ack 40 ------- 1 3.0 0.0 8 47
r 0.2812 4 2 tcp 1040 ------- 2 4.0 1.0 14 41
+ 0.2812 2 1 tcp 1040 ------- 2 4.0 1.0 14 41
r 0.2812 0 2 tcp 1040 ------- 1 0.0 3.0 14 43
+ 0.2812 2 3 tcp 1040 ------- 1 0.0 3.0 14 43
- 0.2812 2 1 tcp 1040 ------- 2 4.0 1.0 14 41
- 0.2812 2 3 tcp 1040 ------- 1 0.0 3.0 14 43
r 0.28288 2 1 tcp 1040 ------- 2 4.0 1.0 11 36
+ 0.28288 1 2 ack 40 ------- 2 1.0 4.0 11 52
- 0.28288 1 2 ack 40 ------- 2 1.0 4.0 11 52
r 0.28288 2 3 tcp 1040 ------- 1 0.0 3.0 11 38
+ 0.28288 3 2 ack 40 ------- 1 3.0 0.0 11 53
- 0.28288 3 2 ack 40 ------- 1 3.0 0.0 11 53
r 0.28472 1 2 ack 40 ------- 2 1.0 4.0 9 48
+ 0.28472 2 4 ack 40 ------- 2 1.0 4.0 9 48
- 0.28472 2 4 ack 40 ------- 2 1.0 4.0 9 48
r 0.28472 3 2 ack 40 ------- 1 3.0 0.0 9 49
+ 0.28472 2 0 ack 40 ------- 1 3.0 0.0 9 49
- 0.28472 2 0 ack 40 ------- 1 3.0 0.0 9 49
r 0.28656 2 4 ack 40 ------- 2 1.0 4.0 7 44
+ 0.28656 4 2 tcp 1040 ------- 2 4.0 1.0 15 54
- 0.28656 4 2 tcp 1040 ------- 2 4.0 1.0 15 54
+ 0.28656 4 2 tcp 1040 ------- 2 4.0 1.0 16 55
r 0.28656 2 0 ack 40 ------- 1 3.0 0.0 7 45
+ 0.28656 0 2 tcp 1040 ------- 1 0.0 3.0 15 56
- 0.28656 0 2 tcp 1040 ------- 1 0.0 3.0 15 56
+ 0.28656 0 2 tcp 1040 ------- 1 0.0 3.0 16 57
r 0.28704 2 1 tcp 1040 ------- 2 4.0 1.0 12 37
+ 0.28704 1 2 ack 40 ------- 2 1.0 4.0 12 58
- 0.28704 1 2 ack 40 ------- 2 1.0 4.0 12 58
r 0.28704 2 3 tcp 1040 ------- 1 0.0 3.0 12 39
+ 0.28704 3 2 ack 40 ------- 1 3.0 0.0 12 59
- 0.28704 3 2 ack 40 ------- 1 3.0 0.0 12 59
r 0.28888 1 2 ack 40 ------- 2 1.0 4.0 10 50
+ 0.28888 2 4 ack 40 ------- 2 1.0 4.0 10 50
- 0.28888 2 4 ack 40 ------- 2 1.0 4.0 10 50
r 0.28888 3 2 ack 40 ------- 1 3.0 0.0 10 51
+ 0.28888 2 0 ack 40 ------- 1 3.0 0.0 10 51
- 0.28888 2 0 ack 40 ------- 1 3.0 0.0 10 51
r 0.29072 2 4 ack 40 ------- 2 1.0 4.0 8 46
+ 0.29072 4 2 tcp 1040 ------- 2 4.0 1.0 17 60
+ 0.29072 4 2 tcp 1040 ------- 2 4.0 1.0 18 61
r 0.29072 2 0 ack 40 ------- 1 3.0 0.0 8 47
+ 0.29072 0 2 tcp 1040 ------- 1 0.0 3.0 17 62
+ 0.29072 0 2 tcp 1040 ------- 1 0.0 3.0 18 63
- 0.29072 4 2 tcp 1040 ------- 2 4.0 1.0 16 55
- 0.29072 0 2 tcp 1040 ------- 1 0.0 3.0 16 57
r 0.2912 2 1 tcp 1040 ------- 2 4.0 1.0 13 40
+ 0.2912 1 2 ack 40 ------- 2 1.0 4.0 13 64
- 0.2912 1 2 ack 40 ------- 2 1.0 4.0 13 64
r 0.2912 2 3 tcp 1040 ------- 1 0.0 3.0 13 42
+ 0.2912 3 2 ack 40 ------- 1 3.0 0.0 13 65
- 0.2912 3 2 ack 40 ------- 1 3.0 0.0 13 65
r 0.29304 1 2 ack 40 ------- 2 1.0 4.0 11 52
+ 0.29304 2 4 ack 40 ------- 2 1.0 4.0 11 52
- 0.29304 2 4 ack 40 ------- 2 1.0 4.0 11 52
r 0.29304 3 2 ack 40 ------- 1 3.0 0.0 11 53
+ 0.29304 2 0 ack 40 ------- 1 3.0 0.0 11 53
- 0.29304 2 0 ack 40 ------- 1 3.0 0.0 11 53
r 0.29488 2 4 ack 40 ------- 2 1.0 4.0 9 48
+ 0.29488 4 2 tcp 1040 ------- 2 4.0 1.0 19 66
+ 0.29488 4 2 tcp 1040 ------- 2 4.0 1.0 20 67
r 0.29488 2 0 ack 40 ------- 1 3.0 0.0 9 49
+ 0.29488 0 2 tcp 1040 ------- 1 0.0 3.0 19 68
+ 0.29488 0 2 tcp 1040 ------- 1 0.0 3.0 20 69
- 0.29488 4 2 tcp 1040 ------- 2 4.0 1.0 17 60
- 0.29488 0 2 tcp 1040 ------- 1 0.0 3.0 17 62
r 0.29536 2 1 tcp 1040 ------- 2 4.0 1.0 14 41
+ 0.29536 1 2 ack 40 ------- 2 1.0 4.0 14 70
- 0.29536 1 2 ack 40 ------- 2 1.0 4.0 14 70
r 0.29536 2 3 tcp 1040 ------- 1 0.0 3.0 14 43
+ 0.29536 3 2 ack 40 ------- 1 3.0 0.0 14 71
- 0.29536 3 2 ack 40 ------- 1 3.0 0.0 14 71
r 0.2972 1 2 ack 40 ------- 2 1.0 4.0 12 58
+ 0.2972 2 4 ack 40 ------- 2 1.0 4.0 12 58
- 0.2972 2 4 ack 40 ------- 2 1.0 4.0 12 58
r 0.2972 3 2 ack 40 ------- 1 3.0 0.0 12 59
+ 0.2972 2 0 ack 40 ------- 1 3.0 0.0 12 59
- 0.2972 2 0 ack 40 ------- 1 3.0 0.0 12 59
- 0.29904 4 2 tcp 1040 ------- 2 4.0 1.0 18 61
- 0.29904 0 2 tcp 1040 ------- 1 0.0 3.0 18 63
r 0.29904 2 4 ack 40 ------- 2 1.0 4.0 10 50
+ 0.29904 4 2 tcp 1040 ------- 2 4.0 1.0 21 72
+ 0.29904 4 2 tcp 1040 ------- 2 4.0 1.0 22 73
r 0.29904 2 0 ack 40 ------- 1 3.0 0.0 10 51
+ 0.29904 0 2 tcp 1040 ------- 1 0.0 3.0 21 74
+ 0.29904 0 2 tcp 1040 ------- 1 0.0 3.0 22 75
r 0.30072 4 2 tcp 1040 ------- 2 4.0 1.0 15 54
+ 0.30072 2 1 tcp 1040 ------- 2 4.0 1.0 15 54
- 0.30072 2 1 tcp 1040 ------- 2 4.0 1.0 15 54
r 0.30072 0 2 tcp 1040 ------- 1 0.0 3.0 15 56
+ 0.30072 2 3 tcp 1040 ------- 1 0.0 3.0 15 56
- 0.30072 2 3 tcp 1040 ------- 1 0.0 3.0 15 56
r 0.30136 1 2 ack 40 ------- 2 1.0 4.0 13 64
+ 0.30136 2 4 ack 40 ------- 2 1.0 4.0 13 64
- 0.30136 2 4 ack 40 ------- 2 1.0 4.0 13 64
r 0.30136 3 2 ack 40 ------- 1 3.0 0.0 13 65
+ 0.30136 2 0 ack 40 ------- 1 3.0 0.0 13 65
- 0.30136 2 0 ack 40 ------- 1 3.0 0.0 13 65
- 0.3032 4 2 tcp 1040 ------- 2 4.0 1.0 19 66
- 0.3032 0 2 tcp 1040 ------- 1 0.0 3.0 19 68
r 0.3032 2 4 ack 40 ------- 2 1.0 4.0 11 52
+ 0.3032 4 2 tcp 1040 ------- 2 4.0 1.0 23 76
+ 0.3032 4 2 tcp 1040 ------- 2 4.0 1.0 24 77
r 0.3032 2 0 ack 40 ------- 1 3.0 0.0 11 53
+ 0.3032 0 2 tcp 1040 ------- 1 0.0 3.0 23 78
+ 0.3032 0 2 tcp 1040 ------- 1 0.0 3.0 24 79
r 0.30488 4 2 tcp 1040 ------- 2 4.0 1.0 16 55
+ 0.30488 2 1 tcp 1040 ------- 2 4.0 1.0 16 55
r 0.30488 0 2 tcp 1040 ------- 1 0.0 3.0 16 57
+ 0.30488 2 3 tcp 1040 ------- 1 0.0 3.0 16 57
- 0.30488 2 1 tcp 1040 ------- 2 4.0 1.0 16 55
- 0.30488 2 3 tcp 1040 ------- 1 0.0 3.0 16 57
r 0.30552 1 2 ack 40 ------- 2 1.0 4.0 14 70
+ 0.30552 2 4 ack 40 ------- 2 1.0 4.0 14 70
- 0.30552 2 4 ack 40 ------- 2 1.0 4.0 14 70
r 0.30552 3 2 ack 40 ------- 1 3.0 0.0 14 71
+ 0.30552 2 0 ack 40 ------- 1 3.0 0.0 14 71
- 0.30552 2 0 ack 40 ------- 1 3.0 0.0 14 71
- 0.30736 4 2 tcp 1040 ------- 2 4.0 1.0 20 67
- 0.30736 0 2 tcp 1040 ------- 1 0.0 3.0 20 69
r 0.30736 2 4 ack 40 ------- 2 1.0 4.0 12 58
+ 0.30736 4 2 tcp 1040 ------- 2 4.0 1.0 25 80
+ 0.30736 4 2 tcp 1040 ------- 2 4.0 1.0 26 81
r 0.30736 2 0 ack 40 ------- 1 3.0 0.0 12 59
+ 0.30736 0 2 tcp 1040 ------- 1 0.0 3.0 25 82
+ 0.30736 0 2 tcp 1040 ------- 1 0.0 3.0 26 83
r 0.30904 4 2 tcp 1040 ------- 2 4.0 1.0 17 60
+ 0.30904 2 1 tcp 1040 ------- 2 4.0 1.0 17 60
r 0.30904 0 2 tcp 1040 ------- 1 0.0 3.0 17 62
+ 0.30904 2 3 tcp 1040 ------- 1 0.0 3.0 17 62
- 0.30904 2 1 tcp 1040 ------- 2 4.0 1.0 17 60
- 0.30904 2 3 tcp 1040 ------- 1 0.0 3.0 17 62
- 0.31152 4 2 tcp 1040 ------- 2 4.0 1.0 21 72
- 0.31152 0 2 tcp 1040 ------- 1 0.0 3.0 21 74
r 0.31152 2 4 ack 40 ------- 2 1.0 4.0 13 64
+ 0.31152 4 2 tcp 1040 ------- 2 4.0 1.0 27 84
+ 0.31152 4 2 tcp 1040 ------- 2 4.0 1.0 28 85
r 0.31152 2 0 ack 40 ------- 1 3.0 0.0 13 65
+ 0.31152 0 2 tcp 1040 ------- 1 0.0 3.0 27 86
+ 0.31152 0 2 tcp 1040 ------- 1 0.0 3.0 28 87
r 0.3132 4 2 tcp 1040 ------- 2 4.0 1.0 18 61
+ 0.3132 2 1 tcp 1040 ------- 2 4.0 1.0 18 61
r 0.3132 0 2 tcp 1040 ------- 1 0.0 3.0 18 63
+ 0.3132 2 3 tcp 1040 ------- 1 0.0 3.0 18 63
- 0.3132 2 1 tcp 1040 ------- 2 4.0 1.0 18 61
- 0.3132 2 3 tcp 1040 ------- 1 0.0 3.0 18 63
r 0.31488 2 1 tcp 1040 ------- 2 4.0 1.0 15 54
+ 0.31488 1 2 ack 40 ------- 2 1.0 4.0 15 88
- 0.31488 1 2 ack 40 ------- 2 1.0 4.0 15 88
r 0.31488 2 3 tcp 1040 ------- 1 0.0 3.0 15 56
+ 0.31488 3 2 ack 40 ------- 1 3.0 0.0 15 89
- 0.31488 3 2 ack 40 ------- 1 3.0 0.0 15 89
- 0.31568 4 2 tcp 1040 ------- 2 4.0 1.0 22 73
- 0.31568 0 2 tcp 1040 ------- 1 0.0 3.0 22 75
r 0.31568 2 4 ack 40 ------- 2 1.0 4.0 14 70
+ 0.31568 4 2 tcp 1040 ------- 2 4.0 1.0 29 90
+ 0.31568 4 2 tcp 1040 ------- 2 4.0 1.0 30 91
r 0.31568 2 0 ack 40 ------- 1 3.0 0.0 14 71
+ 0.31568 0 2 tcp 1040 ------- 1 0.0 3.0 29 92
+ 0.31568 0 2 tcp 1040 ------- 1 0.0 3.0 30 93
r 0.31736 4 2 tcp 1040 ------- 2 4.0 1.0 19 66
+ 0.31736 2 1 tcp 1040 ------- 2 4.0 1.0 19 66
r 0.31736 0 2 tcp 1040 ------- 1 0.0 3.0 19 68
+ 0.31736 2 3 tcp 1040 ------- 1 0.0 3.0 19 68
- 0.31736 2 1 tcp 1040 ------- 2 4.0 1.0 19 66
- 0.31736 2 3 tcp 1040 ------- 1 0.0 3.0 19 68
r 0.31904 2 1 tcp 1040 ------- 2 4.0 1.0 16 55
+ 0.31904 1 2 ack 40 ------- 2 1.0 4.0 16 94
- 0.31904 1 2 ack 40 ------- 2 1.0 4.0 16 94
r 0.31904 2 3 tcp 1040 ------- 1 0.0 3.0 16 57
+ 0.31904 3 2 ack 40 ------- 1 3.0 0.0 16 95
- 0.31904 3 2 ack 40 ------- 1 3.0 0.0 16 95
- 0.31984 4 2 tcp 1040 ------- 2 4.0 1.0 23 76
- 0.31984 0 2 tcp 1040 ------- 1 0.0 3.0 23 78
r 0.32152 4 2 tcp 1040 ------- 2 4.0 1.0 20 67
+ 0.32152 2 1 tcp 1040 ------- 2 4.0 1.0 20 67
r 0.32152 0 2 tcp 1040 ------- 1 0.0 3.0 20 69
+ 0.32152 2 3 tcp 1040 ------- 1 0.0 3.0 20 69
- 0.32152 2 1 tcp 1040 ------- 2 4.0 1.0 20 67
- 0.32152 2 3 tcp 1040 ------- 1 0.0 3.0 20 69
r 0.3232 2 1 tcp 1040 ------- 2 4.0 1.0 17 60
+ 0.3232 1 2 ack 40 ------- 2 1.0 4.0 17 96
- 0.3232 1 2 ack 40 ------- 2 1.0 4.0 17 96
r 0.3232 2 3 tcp 1040 ------- 1 0.0 3.0 17 62
+ 0.3232 3 2 ack 40 ------- 1 3.0 0.0 17 97
- 0.3232 3 2 ack 40 ------- 1 3.0 0.0 17 97
- 0.324 4 2 tcp 1040 ------- 2 4.0 1.0 24 77
- 0.324 0 2 tcp 1040 ------- 1 0.0 3.0 24 79
r 0.32504 1 2 ack 40 ------- 2 1.0 4.0 15 88
+ 0.32504 2 4 ack 40 ------- 2 1.0 4.0 15 88
- 0.32504 2 4 ack 40 ------- 2 1.0 4.0 15 88
r 0.32504 3 2 ack 40 ------- 1 3.0 0.0 15 89
+ 0.32504 2 0 ack 40 ------- 1 3.0 0.0 15 89
- 0.32504 2 0 ack 40 ------- 1 3.0 0.0 15 89
r 0.32568 4 2 tcp 1040 ------- 2 4.0 1.0 21 72
+ 0.32568 2 1 tcp 1040 ------- 2 4.0 1.0 21 72
r 0.32568 0 2 tcp 1040 ------- 1 0.0 3.0 21 74
+ 0.32568 2 3 tcp 1040 ------- 1 0.0 3.0 21 74
- 0.32568 2 1 tcp 1040 ------- 2 4.0 1.0 21 72
- 0.32568 2 3 tcp 1040 ------- 1 0.0 3.0 21 74
r 0.32736 2 1 tcp 1040 ------- 2 4.0 1.0 18 61
+ 0.32736 1 2 ack 40 ------- 2 1.0 4.0 18 98
- 0.32736 1 2 ack 40 ------- 2 1.0 4.0 18 98
r 0.32736 2 3 tcp 1040 ------- 1 0.0 3.0 18 63
+ 0.32736 3 2 ack 40 ------- 1 3.0 0.0 18 99
- 0.32736 3 2 ack 40 ------- 1 3.0 0.0 18 99
- 0.32816 4 2 tcp 1040 ------- 2 4.0 1.0 25 80
- 0.32816 0 2 tcp 1040 ------- 1 0.0 3.0 25 82
r 0.3292 1 2 ack 40 ------- 2 1.0 4.0 16 94
+ 0.3292 2 4 ack 40 ------- 2 1.0 4.0 16 94
- 0.3292 2 4 ack 40 ------- 2 1.0 4.0 16 94
r 0.3292 3 2 ack 40 ------- 1 3.0 0.0 16 95
+ 0.3292 2 0 ack 40 ------- 1 3.0 0.0 16 95
- 0.3292 2 0 ack 40 ------- 1 3.0 0.0 16 95
r 0.32984 4 2 tcp 1040 ------- 2 4.0 1.0 22 73
+ 0.32984 2 1 tcp 1040 ------- 2 4.0 1.0 22 73
r 0.32984 0 2 tcp 1040 ------- 1 0.0 3.0 22 75
+ 0.32984 2 3 tcp 1040 ------- 1 0.0 3.0 22 75
- 0.32984 2 1 tcp 1040 ------- 2 4.0 1.0 22 73
- 0.32984 2 3 tcp 1040 ------- 1 0.0 3.0 22 75
r 0.33152 2 1 tcp 1040 ------- 2 4.0 1.0 19 66
+ 0.33152 1 2 ack 40 ------- 2 1.0 4.0 19 100
- 0.33152 1 2 ack 40 ------- 2 1.0 4.0 19 100
r 0.33152 2 3 tcp 1040 ------- 1 0.0 3.0 19 68
+ 0.33152 3 2 ack 40 ------- 1 3.0 0.0 19 101
- 0.33152 3 2 ack 40 ------- 1 3.0 0.0 19 101
- 0.33232 4 2 tcp 1040 ------- 2 4.0 1.0 26 81
- 0.33232 0 2 tcp 1040 ------- 1 0.0 3.0 26 83
r 0.33336 1 2 ack 40 ------- 2 1.0 4.0 17 96
+ 0.33336 2 4 ack 40 ------- 2 1.0 4.0 17 96
- 0.33336 2 4 ack 40 ------- 2 1.0 4.0 17 96
r 0.33336 3 2 ack 40 ------- 1 3.0 0.0 17 97
+ 0.33336 2 0 ack 40 ------- 1 3.0 0.0 17 97
- 0.33336 2 0 ack 40 ------- 1 3.0 0.0 17 97
r 0.334 4 2 tcp 1040 ------- 2 4.0 1.0 23 76
+ 0.334 2 1 tcp 1040 ------- 2 4.0 1.0 23 76
r 0.334 0 2 tcp 1040 ------- 1 0.0 3.0 23 78
+ 0.334 2 3 tcp 1040 ------- 1 0.0 3.0 23 78
- 0.334 2 1 tcp 1040 ------- 2 4.0 1.0 23 76
- 0.334 2 3 tcp 1040 ------- 1 0.0 3.0 23 78
r 0.3352 2 4 ack 40 ------- 2 1.0 4.0 15 88
+ 0.3352 4 2 tcp 1040 ------- 2 4.0 1.0 31 102
+ 0.3352 4 2 tcp 1040 ------- 2 4.0 1.0 32 103
r 0.3352 2 0 ack 40 ------- 1 3.0 0.0 15 89
+ 0.3352 0 2 tcp 1040 ------- 1 0.0 3.0 31 104
+ 0.3352 0 2 tcp 1040 ------- 1 0.0 3.0 32 105
r 0.33568 2 1 tcp 1040 ------- 2 4.0 1.0 20 67
+ 0.33568 1 2 ack 40 ------- 2 1.0 4.0 20 106
- 0.33568 1 2 ack 40 ------- 2 1.0 4.0 20 106
r 0.33568 2 3 tcp 1040 ------- 1 0.0 3.0 20 69
+ 0.33568 3 2 ack 40 ------- 1 3.0 0.0 20 107
- 0.33568 3 2 ack 40 ------- 1 3.0 0.0 20 107
- 0.33648 4 2 tcp 1040 ------- 2 4.0 1.0 27 84
- 0.33648 0 2 tcp 1040 ------- 1 0.0 3.0 27 86
r 0.33752 1 2 ack 40 ------- 2 1.0 4.0 18 98
+ 0.33752 2 4 ack 40 ------- 2 1.0 4.0 18 98
- 0.33752 2 4 ack 40 ------- 2 1.0 4.0 18 98
r 0.33752 3 2 ack 40 ------- 1 3.0 0.0 18 99
+ 0.33752 2 0 ack 40 ------- 1 3.0 0.0 18 99
- 0.33752 2 0 ack 40 ------- 1 3.0 0.0 18 99
r 0.33816 4 2 tcp 1040 ------- 2 4.0 1.0 24 77
+ 0.33816 2 1 tcp 1040 ------- 2 4.0 1.0 24 77
r 0.33816 0 2 tcp 1040 ------- 1 0.0 3.0 24 79
+ 0.33816 2 3 tcp 1040 ------- 1 0.0 3.0 24 79
- 0.33816 2 1 tcp 1040 ------- 2 4.0 1.0 24 77
- 0.33816 2 3 tcp 1040 ------- 1 0.0 3.0 24 79
r 0.33936 2 4 ack 40 ------- 2 1.0 4.0 16 94
+ 0.33936 4 2 tcp 1040 ------- 2 4.0 1.0 33 108
+ 0.33936 4 2 tcp 1040 ------- 2 4.0 1.0 34 109
r 0.33936 2 0 ack 40 ------- 1 3.0 0.0 16 95
+ 0.33936 0 2 tcp 1040 ------- 1 0.0 3.0 33 110
+ 0.33936 0 2 tcp 1040 ------- 1 0.0 3.0 34 111
r 0.33984 2 1 tcp 1040 ------- 2 4.0 1.0 21 72
+ 0.33984 1 2 ack 40 ------- 2 1.0 4.0 21 112
- 0.33984 1 2 ack 40 ------- 2 1.0 4.0 21 112
r 0.33984 2 3 tcp 1040 ------- 1 0.0 3.0 21 74
+ 0.33984 3 2 ack 40 ------- 1 3.0 0.0 21 113
- 0.33984 3 2 ack 40 ------- 1 3.0 0.0 21 113
- 0.34064 4 2 tcp 1040 ------- 2 4.0 1.0 28 85
- 0.34064 0 2 tcp 1040 ------- 1 0.0 3.0 28 87
r 0.34168 1 2 ack 40 ------- 2 1.0 4.0 19 100
+ 0.34168 2 4 ack 40 ------- 2 1.0 4.0 19 100
- 0.34168 2 4 ack 40 ------- 2 1.0 4.0 19 100
r 0.34168 3 2 ack 40 ------- 1 3.0 0.0 19 101
+ 0.34168 2 0 ack 40 ------- 1 3.0 0.0 19 101
- 0.34168 2 0 ack 40 ------- 1 3.0 0.0 19 101
r 0.34232 4 2 tcp 1040 ------- 2 4.0 1.0 25 80
+ 0.34232 2 1 tcp 1040 ------- 2 4.0 1.0 25 80
r 0.34232 0 2 tcp 1040 ------- 1 0.0 3.0 25 82
+ 0.34232 2 3 tcp 1040 ------- 1 0.0 3.0 25 82
- 0.34232 2 1 tcp 1040 ------- 2 4.0 1.0 25 80
- 0.34232 2 3 tcp 1040 ------- 1 0.0 3.0 25 82
r 0.34352 2 4 ack 40 ------- 2 1.0 4.0 17 96
+ 0.34352 4 2 tcp 1040 ------- 2 4.0 1.0 35 114
+ 0.34352 4 2 tcp 1040 ------- 2 4.0 1.0 36 115
r 0.34352 2 0 ack 40 ------- 1 3.0 0.0 17 97
+ 0.34352 0 2 tcp 1040 ------- 1 0.0 3.0 35 116
+ 0.34352 0 2 tcp 1040 ------- 1 0.0 3.0 36 117
r 0.344 2 1 tcp 1040 ------- 2 4.0 1.0 22 73
+ 0.344 1 2 ack 40 ------- 2 1.0 4.0 22 118
- 0.344 1 2 ack 40 ------- 2 1.0 4.0 22 118
r 0.344 2 3 tcp 1040 ------- 1 0.0 3.0 22 75
+ 0.344 3 2 ack 40 ------- 1 3.0 0.0 22 119
- 0.344 3 2 ack 40 ------- 1 3.0 0.0 22 119
- 0.3448 4 2 tcp 1040 ------- 2 4.0 1.0 29 90
- 0.3448 0 2 tcp 1040 ------- 1 0.0 3.0 29 92
r 0.34584 1 2 ack 40 ------- 2 1.0 4.0 20 106
+ 0.34584 2 4 ack 40 ------- 2 1.0 4.0 20 106
- 0.34584 2 4 ack 40 ------- 2 1.0 4.0 20 106
r 0.34584 3 2 ack 40 ------- 1 3.0 0.0 20 107
+ 0.34584 2 0 ack 40 ------- 1 3.0 0.0 20 107
- 0.34584 2 0 ack 40 ------- 1 3.0 0.0 20 107
r 0.34648 4 2 tcp 1040 ------- 2 4.0 1.0 26 81
+ 0.34648 2 1 tcp 1040 ------- 2 4.0 1.0 26 81
r 0.34648 0 2 tcp 1040 ------- 1 0.0 3.0 26 83
+ 0.34648 2 3 tcp 1040 ------- 1 0.0 3.0 26 83
- 0.34648 2 1 tcp 1040 ------- 2 4.0 1.0 26 81
- 0.34648 2 3 tcp 1040 ------- 1 0.0 3.0 26 83
r 0.34768 2 4 ack 40 ------- 2 1.0 4.0 18 98
+ 0.34768 4 2 tcp 1040 ------- 2 4.0 1.0 37 120
+ 0.34768 4 2 tcp 1040 ------- 2 4.0 1.0 38 121
r 0.34768 2 0 ack 40 ------- 1 3.0 0.0 18 99
+ 0.34768 0 2 tcp 1040 ------- 1 0.0 3.0 37 122
+ 0.34768 0 2 tcp 1040 ------- 1 0.0 3.0 38 123
r 0.34816 2 1 tcp 1040 ------- 2 4.0 1.0 23 76
+ 0.34816 1 2 ack 40 ------- 2 1.0 4.0 23 124
- 0.34816 1 2 ack 40 ------- 2 1.0 4.0 23 124
r 0.34816 2 3 tcp 1040 ------- 1 0.0 3.0 23 78
+ 0.34816 3 2 ack 40 ------- 1 3.0 0.0 23 125
- 0.34816 3 2 ack 40 ------- 1 3.0 0.0 23 125
- 0.34896 4 2 tcp 1040 ------- 2 4.0 1.0 30 91
- 0.34896 0 2 tcp 1040 ------- 1 0.0 3.0 30 93
r 0.35 1 2 ack 40 ------- 2 1.0 4.0 21 112
+ 0.35 2 4 ack 40 ------- 2 1.0 4.0 21 112
- 0.35 2 4 ack 40 ------- 2 1.0 4.0 21 112
r 0.35 3 2 ack 40 ------- 1 3.0 0.0 21 113
+ 0.35 2 0 ack 40 ------- 1 3.0 0.0 21 113
- 0.35 2 0 ack 40 ------- 1 3.0 0.0 21 113
r 0.35064 4 2 tcp 1040 ------- 2 4.0 1.0 27 84
+ 0.35064 2 1 tcp 1040 ------- 2 4.0 1.0 27 84
r 0.35064 0 2 tcp 1040 ------- 1 0.0 3.0 27 86
+ 0.35064 2 3 tcp 1040 ------- 1 0.0 3.0 27 86
- 0.35064 2 1 tcp 1040 ------- 2 4.0 1.0 27 84
- 0.35064 2 3 tcp 1040 ------- 1 0.0 3.0 27 86
r 0.35184 2 4 ack 40 ------- 2 1.0 4.0 19 100
+ 0.35184 4 2 tcp 1040 ------- 2 4.0 1.0 39 126
r 0.35184 2 0 ack 40 ------- 1 3.0 0.0 19 101
+ 0.35184 0 2 tcp 1040 ------- 1 0.0 3.0 39 127
r 0.35232 2 1 tcp 1040 ------- 2 4.0 1.0 24 77
+ 0.35232 1 2 ack 40 ------- 2 1.0 4.0 24 128
- 0.35232 1 2 ack 40 ------- 2 1.0 4.0 24 128
r 0.35232 2 3 tcp 1040 ------- 1 0.0 3.0 24 79
+ 0.35232 3 2 ack 40 ------- 1 3.0 0.0 24 129
- 0.35232 3 2 ack 40 ------- 1 3.0 0.0 24 129
- 0.35312 4 2 tcp 1040 ------- 2 4.0 1.0 31 102
- 0.35312 0 2 tcp 1040 ------- 1 0.0 3.0 31 104
r 0.35416 1 2 ack 40 ------- 2 1.0 4.0 22 118
+ 0.35416 2 4 ack 40 ------- 2 1.0 4.0 22 118
- 0.35416 2 4 ack 40 ------- 2 1.0 4.0 22 118
r 0.35416 3 2 ack 40 ------- 1 3.0 0.0 22 119
+ 0.35416 2 0 ack 40 ------- 1 3.0 0.0 22 119
- 0.35416 2 0 ack 40 ------- 1 3.0 0.0 22 119
r 0.3548 4 2 tcp 1040 ------- 2 4.0 1.0 28 85
+ 0.3548 2 1 tcp 1040 ------- 2 4.0 1.0 28 85
r 0.3548 0 2 tcp 1040 ------- 1 0.0 3.0 28 87
+ 0.3548 2 3 tcp 1040 ------- 1 0.0 3.0 28 87
- 0.3548 2 1 tcp 1040 ------- 2 4.0 1.0 28 85
- 0.3548 2 3 tcp 1040 ------- 1 0.0 3.0 28 87
r 0.356 2 4 ack 40 ------- 2 1.0 4.0 20 106
+ 0.356 4 2 tcp 1040 ------- 2 4.0 1.0 40 130
r 0.356 2 0 ack 40 ------- 1 3.0 0.0 20 107
+ 0.356 0 2 tcp 1040 ------- 1 0.0 3.0 40 131
r 0.35648 2 1 tcp 1040 ------- 2 4.0 1.0 25 80
+ 0.35648 1 2 ack 40 ------- 2 1.0 4.0 25 132
- 0.35648 1 2 ack 40 ------- 2 1.0 4.0 25 132
r 0.35648 2 3 tcp 1040 ------- 1 0.0 3.0 25 82
+ 0.35648 3 2 ack 40 ------- 1 3.0 0.0 25 133
- 0.35648 3 2 ack 40 ------- 1 3.0 0.0 25 133
- 0.35728 4 2 tcp 1040 ------- 2 4.0 1.0 32 103
- 0.35728 0 2 tcp 1040 ------- 1 0.0 3.0 32 105
r 0.35832 1 2 ack 40 ------- 2 1.0 4.0 23 124