s 0.088001372 _3_ RTR  --- 0 message 32 [0 0 0 0] ------- [3:255 -1:255 32 0] 
r 0.089121455 _2_ RTR  --- 0 message 32 [0 ffffffff 3 800] ------- [3:255 -1:255 32 0] 
r 0.089121455 _7_ RTR  --- 0 message 32 [0 ffffffff 3 800] ------- [3:255 -1:255 32 0] 
r 0.089121490 _6_ RTR  --- 0 message 32 [0 ffffffff 3 800] ------- [3:255 -1:255 32 0] 
r 0.089121538 _1_ RTR  --- 0 message 32 [0 ffffffff 3 800] ------- [3:255 -1:255 32 0] 
r 0.089121538 _11_ RTR  --- 0 message 32 [0 ffffffff 3 800] ------- [3:255 -1:255 32 0] 
r 0.089121558 _10_ RTR  --- 0 message 32 [0 ffffffff 3 800] ------- [3:255 -1:255 32 0] 
r 0.089121558 _5_ RTR  --- 0 message 32 [0 ffffffff 3 800] ------- [3:255 -1:255 32 0] 
r 0.089121607 _9_ RTR  --- 0 message 32 [0 ffffffff 3 800] ------- [3:255 -1:255 32 0] 
r 0.089121622 _0_ RTR  --- 0 message 32 [0 ffffffff 3 800] ------- [3:255 -1:255 32 0] 
r 0.089121622 _15_ RTR  --- 0 message 32 [0 ffffffff 3 800] ------- [3:255 -1:255 32 0] 
r 0.089121635 _14_ RTR  --- 0 message 32 [0 ffffffff 3 800] ------- [3:255 -1:255 32 0] 
r 0.089121635 _4_ RTR  --- 0 message 32 [0 ffffffff 3 800] ------- [3:255 -1:255 32 0] 
r 0.089121672 _13_ RTR  --- 0 message 32 [0 ffffffff 3 800] ------- [3:255 -1:255 32 0] 
r 0.089121672 _8_ RTR  --- 0 message 32 [0 ffffffff 3 800] ------- [3:255 -1:255 32 0] 
r 0.089121705 _19_ RTR  --- 0 message 32 [0 ffffffff 3 800] ------- [3:255 -1:255 32 0] 
r 0.089121715 _18_ RTR  --- 0 message 32 [0 ffffffff 3 800] ------- [3:255 -1:255 32 0] 
r 0.089121725 _12_ RTR  --- 0 message 32 [0 ffffffff 3 800] ------- [3:255 -1:255 32 0] 
r 0.089121744 _17_ RTR  --- 0 message 32 [0 ffffffff 3 800] ------- [3:255 -1:255 32 0] 
r 0.089121788 _16_ RTR  --- 0 message 32 [0 ffffffff 3 800] ------- [3:255 -1:255 32 0] 
s 0.197327164 _9_ RTR  --- 1 message 32 [0 0 0 0] ------- [9:255 -1:255 32 0] 
r 0.198427247 _5_ RTR  --- 1 message 32 [0 ffffffff 9 800] ------- [9:255 -1:255 32 0] 
r 0.198427247 _8_ RTR  --- 1 message 32 [0 ffffffff 9 800] ------- [9:255 -1:255 32 0] 
r 0.198427247 _13_ RTR  --- 1 message 32 [0 ffffffff 9 800] ------- [9:255 -1:255 32 0] 
r 0.198427247 _10_ RTR  --- 1 message 32 [0 ffffffff 9 800] ------- [9:255 -1:255 32 0] 
r 0.198427282 _12_ RTR  --- 1 message 32 [0 ffffffff 9 800] ------- [9:255 -1:255 32 0] 
r 0.198427282 _4_ RTR  --- 1 message 32 [0 ffffffff 9 800] ------- [9:255 -1:255 32 0] 
r 0.198427282 _6_ RTR  --- 1 message 32 [0 ffffffff 9 800] ------- [9:255 -1:255 32 0] 
r 0.198427282 _14_ RTR  --- 1 message 32 [0 ffffffff 9 800] ------- [9:255 -1:255 32 0] 
r 0.198427330 _1_ RTR  --- 1 message 32 [0 ffffffff 9 800] ------- [9:255 -1:255 32 0] 
r 0.198427330 _17_ RTR  --- 1 message 32 [0 ffffffff 9 800] ------- [9:255 -1:255 32 0] 
r 0.198427330 _11_ RTR  --- 1 message 32 [0 ffffffff 9 800] ------- [9:255 -1:255 32 0] 
r 0.198427350 _16_ RTR  --- 1 message 32 [0 ffffffff 9 800] ------- [9:255 -1:255 32 0] 
r 0.198427350 _0_ RTR  --- 1 message 32 [0 ffffffff 9 800] ------- [9:255 -1:255 32 0] 
r 0.198427350 _2_ RTR  --- 1 message 32 [0 ffffffff 9 800] ------- [9:255 -1:255 32 0] 
r 0.198427350 _18_ RTR  --- 1 message 32 [0 ffffffff 9 800] ------- [9:255 -1:255 32 0] 
r 0.198427350 _7_ RTR  --- 1 message 32 [0 ffffffff 9 800] ------- [9:255 -1:255 32 0] 
r 0.198427350 _15_ RTR  --- 1 message 32 [0 ffffffff 9 800] ------- [9:255 -1:255 32 0] 
r 0.198427399 _3_ RTR  --- 1 message 32 [0 ffffffff 9 800] ------- [9:255 -1:255 32 0] 
r 0.198427399 _19_ RTR  --- 1 message 32 [0 ffffffff 9 800] ------- [9:255 -1:255 32 0] 
s 0.229490150 _5_ RTR  --- 2 message 32 [0 0 0 0] ------- [5:255 -1:255 32 0] 
r 0.230530233 _1_ RTR  --- 2 message 32 [0 ffffffff 5 800] ------- [5:255 -1:255 32 0] 
r 0.230530233 _4_ RTR  --- 2 message 32 [0 ffffffff 5 800] ------- [5:255 -1:255 32 0] 
r 0.230530233 _9_ RTR  --- 2 message 32 [0 ffffffff 5 800] ------- [5:255 -1:255 32 0] 
r 0.230530233 _6_ RTR  --- 2 message 32 [0 ffffffff 5 800] ------- [5:255 -1:255 32 0] 
r 0.230530267 _8_ RTR  --- 2 message 32 [0 ffffffff 5 800] ------- [5:255 -1:255 32 0] 
r 0.230530267 _0_ RTR  --- 2 message 32 [0 ffffffff 5 800] ------- [5:255 -1:255 32 0] 
r 0.230530267 _2_ RTR  --- 2 message 32 [0 ffffffff 5 800] ------- [5:255 -1:255 32 0] 
r 0.230530267 _10_ RTR  --- 2 message 32 [0 ffffffff 5 800] ------- [5:255 -1:255 32 0] 
r 0.230530316 _13_ RTR  --- 2 message 32 [0 ffffffff 5 800] ------- [5:255 -1:255 32 0] 
r 0.230530316 _7_ RTR  --- 2 message 32 [0 ffffffff 5 800] ------- [5:255 -1:255 32 0] 
r 0.230530336 _12_ RTR  --- 2 message 32 [0 ffffffff 5 800] ------- [5:255 -1:255 32 0] 
r 0.230530336 _14_ RTR  --- 2 message 32 [0 ffffffff 5 800] ------- [5:255 -1:255 32 0] 
r 0.230530336 _3_ RTR  --- 2 message 32 [0 ffffffff 5 800] ------- [5:255 -1:255 32 0] 
r 0.230530336 _11_ RTR  --- 2 message 32 [0 ffffffff 5 800] ------- [5:255 -1:255 32 0] 
r 0.230530385 _15_ RTR  --- 2 message 32 [0 ffffffff 5 800] ------- [5:255 -1:255 32 0] 
r 0.230530400 _17_ RTR  --- 2 message 32 [0 ffffffff 5 800] ------- [5:255 -1:255 32 0] 
r 0.230530413 _16_ RTR  --- 2 message 32 [0 ffffffff 5 800] ------- [5:255 -1:255 32 0] 
r 0.230530413 _18_ RTR  --- 2 message 32 [0 ffffffff 5 800] ------- [5:255 -1:255 32 0] 
r 0.230530450 _19_ RTR  --- 2 message 32 [0 ffffffff 5 800] ------- [5:255 -1:255 32 0] 
s 0.329411126 _2_ RTR  --- 3 message 32 [0 0 0 0] ------- [2:255 -1:255 32 0] 
r 0.330351210 _1_ RTR  --- 3 message 32 [0 ffffffff 2 800] ------- [2:255 -1:255 32 0] 
r 0.330351210 _6_ RTR  --- 3 message 32 [0 ffffffff 2 800] ------- [2:255 -1:255 32 0] 
r 0.330351210 _3_ RTR  --- 3 message 32 [0 ffffffff 2 800] ------- [2:255 -1:255 32 0] 
r 0.330351244 _5_ RTR  --- 3 message 32 [0 ffffffff 2 800] ------- [2:255 -1:255 32 0] 
r 0.330351244 _7_ RTR  --- 3 message 32 [0 ffffffff 2 800] ------- [2:255 -1:255 32 0] 
r 0.330351293 _0_ RTR  --- 3 message 32 [0 ffffffff 2 800] ------- [2:255 -1:255 32 0] 
r 0.330351293 _10_ RTR  --- 3 message 32 [0 ffffffff 2 800] ------- [2:255 -1:255 32 0] 
r 0.330351313 _9_ RTR  --- 3 message 32 [0 ffffffff 2 800] ------- [2:255 -1:255 32 0] 
r 0.330351313 _4_ RTR  --- 3 message 32 [0 ffffffff 2 800] ------- [2:255 -1:255 32 0] 
r 0.330351313 _11_ RTR  --- 3 message 32 [0 ffffffff 2 800] ------- [2:255 -1:255 32 0] 
r 0.330351362 _8_ RTR  --- 3 message 32 [0 ffffffff 2 800] ------- [2:255 -1:255 32 0] 
r 0.330351376 _14_ RTR  --- 3 message 32 [0 ffffffff 2 800] ------- [2:255 -1:255 32 0] 
r 0.330351390 _13_ RTR  --- 3 message 32 [0 ffffffff 2 800] ------- [2:255 -1:255 32 0] 
r 0.330351390 _15_ RTR  --- 3 message 32 [0 ffffffff 2 800] ------- [2:255 -1:255 32 0] 
r 0.330351427 _12_ RTR  --- 3 message 32 [0 ffffffff 2 800] ------- [2:255 -1:255 32 0] 
r 0.330351460 _18_ RTR  --- 3 message 32 [0 ffffffff 2 800] ------- [2:255 -1:255 32 0] 
r 0.330351470 _17_ RTR  --- 3 message 32 [0 ffffffff 2 800] ------- [2:255 -1:255 32 0] 
r 0.330351470 _19_ RTR  --- 3 message 32 [0 ffffffff 2 800] ------- [2:255 -1:255 32 0] 
r 0.330351499 _16_ RTR  --- 3 message 32 [0 ffffffff 2 800] ------- [2:255 -1:255 32 0] 
s 0.352967135 _8_ RTR  --- 4 message 32 [0 0 0 0] ------- [8:255 -1:255 32 0] 
r 0.353967219 _4_ RTR  --- 4 message 32 [0 ffffffff 8 800] ------- [8:255 -1:255 32 0] 
r 0.353967219 _12_ RTR  --- 4 message 32 [0 ffffffff 8 800] ------- [8:255 -1:255 32 0] 
r 0.353967219 _9_ RTR  --- 4 message 32 [0 ffffffff 8 800] ------- [8:255 -1:255 32 0] 
r 0.353967253 _5_ RTR  --- 4 message 32 [0 ffffffff 8 800] ------- [8:255 -1:255 32 0] 
r 0.353967253 _13_ RTR  --- 4 message 32 [0 ffffffff 8 800] ------- [8:255 -1:255 32 0] 
r 0.353967302 _0_ RTR  --- 4 message 32 [0 ffffffff 8 800] ------- [8:255 -1:255 32 0] 
r 0.353967302 _16_ RTR  --- 4 message 32 [0 ffffffff 8 800] ------- [8:255 -1:255 32 0] 
r 0.353967302 _10_ RTR  --- 4 message 32 [0 ffffffff 8 800] ------- [8:255 -1:255 32 0] 
r 0.353967322 _1_ RTR  --- 4 message 32 [0 ffffffff 8 800] ------- [8:255 -1:255 32 0] 
r 0.353967322 _17_ RTR  --- 4 message 32 [0 ffffffff 8 800] ------- [8:255 -1:255 32 0] 
r 0.353967322 _6_ RTR  --- 4 message 32 [0 ffffffff 8 800] ------- [8:255 -1:255 32 0] 
r 0.353967322 _14_ RTR  --- 4 message 32 [0 ffffffff 8 800] ------- [8:255 -1:255 32 0] 
r 0.353967371 _2_ RTR  --- 4 message 32 [0 ffffffff 8 800] ------- [8:255 -1:255 32 0] 
r 0.353967371 _18_ RTR  --- 4 message 32 [0 ffffffff 8 800] ------- [8:255 -1:255 32 0] 
r 0.353967385 _11_ RTR  --- 4 message 32 [0 ffffffff 8 800] ------- [8:255 -1:255 32 0] 
r 0.353967399 _7_ RTR  --- 4 message 32 [0 ffffffff 8 800] ------- [8:255 -1:255 32 0] 
r 0.353967399 _15_ RTR  --- 4 message 32 [0 ffffffff 8 800] ------- [8:255 -1:255 32 0] 
r 0.353967436 _3_ RTR  --- 4 message 32 [0 ffffffff 8 800] ------- [8:255 -1:255 32 0] 
r 0.353967436 _19_ RTR  --- 4 message 32 [0 ffffffff 8 800] ------- [8:255 -1:255 32 0] 
s 0.441305651 _19_ RTR  --- 5 message 32 [0 0 0 0] ------- [19:255 -1:255 32 0] 
r 0.442345734 _15_ RTR  --- 5 message 32 [0 ffffffff 13 800] ------- [19:255 -1:255 32 0] 
r 0.442345734 _18_ RTR  --- 5 message 32 [0 ffffffff 13 800] ------- [19:255 -1:255 32 0] 
r 0.442345769 _14_ RTR  --- 5 message 32 [0 ffffffff 13 800] ------- [19:255 -1:255 32 0] 
r 0.442345818 _11_ RTR  --- 5 message 32 [0 ffffffff 13 800] ------- [19:255 -1:255 32 0] 
r 0.442345818 _17_ RTR  --- 5 message 32 [0 ffffffff 13 800] ------- [19:255 -1:255 32 0] 
r 0.442345837 _10_ RTR  --- 5 message 32 [0 ffffffff 13 800] ------- [19:255 -1:255 32 0] 
r 0.442345837 _13_ RTR  --- 5 message 32 [0 ffffffff 13 800] ------- [19:255 -1:255 32 0] 
r 0.442345887 _9_ RTR  --- 5 message 32 [0 ffffffff 13 800] ------- [19:255 -1:255 32 0] 
r 0.442345901 _7_ RTR  --- 5 message 32 [0 ffffffff 13 800] ------- [19:255 -1:255 32 0] 
r 0.442345901 _16_ RTR  --- 5 message 32 [0 ffffffff 13 800] ------- [19:255 -1:255 32 0] 
r 0.442345915 _6_ RTR  --- 5 message 32 [0 ffffffff 13 800] ------- [19:255 -1:255 32 0] 
r 0.442345915 _12_ RTR  --- 5 message 32 [0 ffffffff 13 800] ------- [19:255 -1:255 32 0] 
r 0.442345952 _5_ RTR  --- 5 message 32 [0 ffffffff 13 800] ------- [19:255 -1:255 32 0] 
r 0.442345952 _8_ RTR  --- 5 message 32 [0 ffffffff 13 800] ------- [19:255 -1:255 32 0] 
r 0.442345984 _3_ RTR  --- 5 message 32 [0 ffffffff 13 800] ------- [19:255 -1:255 32 0] 
r 0.442345995 _2_ RTR  --- 5 message 32 [0 ffffffff 13 800] ------- [19:255 -1:255 32 0] 
r 0.442346005 _4_ RTR  --- 5 message 32 [0 ffffffff 13 800] ------- [19:255 -1:255 32 0] 
r 0.442346024 _1_ RTR  --- 5 message 32 [0 ffffffff 13 800] ------- [19:255 -1:255 32 0] 
r 0.442346068 _0_ RTR  --- 5 message 32 [0 ffffffff 13 800] ------- [19:255 -1:255 32 0] 
s 0.521724294 _12_ RTR  --- 6 message 32 [0 0 0 0] ------- [12:255 -1:255 32 0] 
r 0.522624378 _8_ RTR  --- 6 message 32 [0 ffffffff c 800] ------- [12:255 -1:255 32 0] 
r 0.522624378 _16_ RTR  --- 6 message 32 [0 ffffffff c 800] ------- [12:255 -1:255 32 0] 
r 0.522624378 _13_ RTR  --- 6 message 32 [0 ffffffff c 800] ------- [12:255 -1:255 32 0] 
r 0.522624412 _9_ RTR  --- 6 message 32 [0 ffffffff c 800] ------- [12:255 -1:255 32 0] 
r 0.522624412 _17_ RTR  --- 6 message 32 [0 ffffffff c 800] ------- [12:255 -1:255 32 0] 
r 0.522624461 _4_ RTR  --- 6 message 32 [0 ffffffff c 800] ------- [12:255 -1:255 32 0] 
r 0.522624461 _14_ RTR  --- 6 message 32 [0 ffffffff c 800] ------- [12:255 -1:255 32 0] 
r 0.522624481 _5_ RTR  --- 6 message 32 [0 ffffffff c 800] ------- [12:255 -1:255 32 0] 
r 0.522624481 _10_ RTR  --- 6 message 32 [0 ffffffff c 800] ------- [12:255 -1:255 32 0] 
r 0.522624481 _18_ RTR  --- 6 message 32 [0 ffffffff c 800] ------- [12:255 -1:255 32 0] 
r 0.522624530 _6_ RTR  --- 6 message 32 [0 ffffffff c 800] ------- [12:255 -1:255 32 0] 
r 0.522624544 _0_ RTR  --- 6 message 32 [0 ffffffff c 800] ------- [12:255 -1:255 32 0] 
r 0.522624544 _15_ RTR  --- 6 message 32 [0 ffffffff c 800] ------- [12:255 -1:255 32 0] 
r 0.522624558 _1_ RTR  --- 6 message 32 [0 ffffffff c 800] ------- [12:255 -1:255 32 0] 
r 0.522624558 _11_ RTR  --- 6 message 32 [0 ffffffff c 800] ------- [12:255 -1:255 32 0] 
r 0.522624558 _19_ RTR  --- 6 message 32 [0 ffffffff c 800] ------- [12:255 -1:255 32 0] 
r 0.522624595 _2_ RTR  --- 6 message 32 [0 ffffffff c 800] ------- [12:255 -1:255 32 0] 
r 0.522624595 _7_ RTR  --- 6 message 32 [0 ffffffff c 800] ------- [12:255 -1:255 32 0] 
r 0.522624648 _3_ RTR  --- 6 message 32 [0 ffffffff c 800] ------- [12:255 -1:255 32 0] 
s 0.620020258 _0_ RTR  --- 7 message 32 [0 0 0 0] ------- [0:255 -1:255 32 0] 
r 0.621140342 _4_ RTR  --- 7 message 32 [0 ffffffff 0 800] ------- [0:255 -1:255 32 0] 
r 0.621140342 _1_ RTR  --- 7 message 32 [0 ffffffff 0 800] ------- [0:255 -1:255 32 0] 
r 0.621140376 _5_ RTR  --- 7 message 32 [0 ffffffff 0 800] ------- [0:255 -1:255 32 0] 
r 0.621140425 _8_ RTR  --- 7 message 32 [0 ffffffff 0 800] ------- [0:255 -1:255 32 0] 
r 0.621140425 _2_ RTR  --- 7 message 32 [0 ffffffff 0 800] ------- [0:255 -1:255 32 0] 
r 0.621140445 _9_ RTR  --- 7 message 32 [0 ffffffff 0 800] ------- [0:255 -1:255 32 0] 
r 0.621140445 _6_ RTR  --- 7 message 32 [0 ffffffff 0 800] ------- [0:255 -1:255 32 0] 
r 0.621140494 _10_ RTR  --- 7 message 32 [0 ffffffff 0 800] ------- [0:255 -1:255 32 0] 
r 0.621140508 _12_ RTR  --- 7 message 32 [0 ffffffff 0 800] ------- [0:255 -1:255 32 0] 
r 0.621140508 _3_ RTR  --- 7 message 32 [0 ffffffff 0 800] ------- [0:255 -1:255 32 0] 
r 0.621140522 _13_ RTR  --- 7 message 32 [0 ffffffff 0 800] ------- [0:255 -1:255 32 0] 
r 0.621140522 _7_ RTR  --- 7 message 32 [0 ffffffff 0 800] ------- [0:255 -1:255 32 0] 
r 0.621140559 _14_ RTR  --- 7 message 32 [0 ffffffff 0 800] ------- [0:255 -1:255 32 0] 
r 0.621140559 _11_ RTR  --- 7 message 32 [0 ffffffff 0 800] ------- [0:255 -1:255 32 0] 
r 0.621140592 _16_ RTR  --- 7 message 32 [0 ffffffff 0 800] ------- [0:255 -1:255 32 0] 
r 0.621140602 _17_ RTR  --- 7 message 32 [0 ffffffff 0 800] ------- [0:255 -1:255 32 0] 
r 0.621140612 _15_ RTR  --- 7 message 32 [0 ffffffff 0 800] ------- [0:255 -1:255 32 0] 
r 0.621140631 _18_ RTR  --- 7 message 32 [0 ffffffff 0 800] ------- [0:255 -1:255 32 0] 
r 0.621140675 _19_ RTR  --- 7 message 32 [0 ffffffff 0 800] ------- [0:255 -1:255 32 0] 
s 0.699549391 _11_ RTR  --- 8 message 32 [0 0 0 0] ------- [11:255 -1:255 32 0] 
r 0.700609475 _7_ RTR  --- 8 message 32 [0 ffffffff b 800] ------- [11:255 -1:255 32 0] 
r 0.700609475 _10_ RTR  --- 8 message 32 [0 ffffffff b 800] ------- [11:255 -1:255 32 0] 
r 0.700609475 _15_ RTR  --- 8 message 32 [0 ffffffff b 800] ------- [11:255 -1:255 32 0] 
r 0.700609509 _14_ RTR  --- 8 message 32 [0 ffffffff b 800] ------- [11:255 -1:255 32 0] 
r 0.700609509 _6_ RTR  --- 8 message 32 [0 ffffffff b 800] ------- [11:255 -1:255 32 0] 
r 0.700609558 _3_ RTR  --- 8 message 32 [0 ffffffff b 800] ------- [11:255 -1:255 32 0] 
r 0.700609558 _9_ RTR  --- 8 message 32 [0 ffffffff b 800] ------- [11:255 -1:255 32 0] 
r 0.700609558 _19_ RTR  --- 8 message 32 [0 ffffffff b 800] ------- [11:255 -1:255 32 0] 
r 0.700609578 _18_ RTR  --- 8 message 32 [0 ffffffff b 800] ------- [11:255 -1:255 32 0] 
r 0.700609578 _2_ RTR  --- 8 message 32 [0 ffffffff b 800] ------- [11:255 -1:255 32 0] 
r 0.700609578 _13_ RTR  --- 8 message 32 [0 ffffffff b 800] ------- [11:255 -1:255 32 0] 
r 0.700609578 _5_ RTR  --- 8 message 32 [0 ffffffff b 800] ------- [11:255 -1:255 32 0] 
r 0.700609627 _17_ RTR  --- 8 message 32 [0 ffffffff b 800] ------- [11:255 -1:255 32 0] 
r 0.700609627 _1_ RTR  --- 8 message 32 [0 ffffffff b 800] ------- [11:255 -1:255 32 0] 
r 0.700609641 _8_ RTR  --- 8 message 32 [0 ffffffff b 800] ------- [11:255 -1:255 32 0] 
r 0.700609655 _12_ RTR  --- 8 message 32 [0 ffffffff b 800] ------- [11:255 -1:255 32 0] 
r 0.700609655 _4_ RTR  --- 8 message 32 [0 ffffffff b 800] ------- [11:255 -1:255 32 0] 
r 0.700609692 _16_ RTR  --- 8 message 32 [0 ffffffff b 800] ------- [11:255 -1:255 32 0] 
r 0.700609692 _0_ RTR  --- 8 message 32 [0 ffffffff b 800] ------- [11:255 -1:255 32 0] 
s 0.818284921 _13_ RTR  --- 9 message 32 [0 0 0 0] ------- [13:255 -1:255 32 0] 
r 0.819565005 _9_ RTR  --- 9 message 32 [0 ffffffff d 800] ------- [13:255 -1:255 32 0] 
r 0.819565005 _12_ RTR  --- 9 message 32 [0 ffffffff d 800] ------- [13:255 -1:255 32 0] 
r 0.819565005 _17_ RTR  --- 9 message 32 [0 ffffffff d 800] ------- [13:255 -1:255 32 0] 
r 0.819565005 _14_ RTR  --- 9 message 32 [0 ffffffff d 800] ------- [13:255 -1:255 32 0] 
r 0.819565039 _16_ RTR  --- 9 message 32 [0 ffffffff d 800] ------- [13:255 -1:255 32 0] 
r 0.819565039 _8_ RTR  --- 9 message 32 [0 ffffffff d 800] ------- [13:255 -1:255 32 0] 
r 0.819565039 _10_ RTR  --- 9 message 32 [0 ffffffff d 800] ------- [13:255 -1:255 32 0] 
r 0.819565039 _18_ RTR  --- 9 message 32 [0 ffffffff d 800] ------- [13:255 -1:255 32 0] 
r 0.819565088 _5_ RTR  --- 9 message 32 [0 ffffffff d 800] ------- [13:255 -1:255 32 0] 
r 0.819565088 _15_ RTR  --- 9 message 32 [0 ffffffff d 800] ------- [13:255 -1:255 32 0] 
r 0.819565108 _4_ RTR  --- 9 message 32 [0 ffffffff d 800] ------- [13:255 -1:255 32 0] 
r 0.819565108 _6_ RTR  --- 9 message 32 [0 ffffffff d 800] ------- [13:255 -1:255 32 0] 
r 0.819565108 _11_ RTR  --- 9 message 32 [0 ffffffff d 800] ------- [13:255 -1:255 32 0] 
r 0.819565108 _19_ RTR  --- 9 message 32 [0 ffffffff d 800] ------- [13:255 -1:255 32 0] 
r 0.819565157 _7_ RTR  --- 9 message 32 [0 ffffffff d 800] ------- [13:255 -1:255 32 0] 
r 0.819565171 _1_ RTR  --- 9 message 32 [0 ffffffff d 800] ------- [13:255 -1:255 32 0] 
r 0.819565185 _0_ RTR  --- 9 message 32 [0 ffffffff d 800] ------- [13:255 -1:255 32 0] 
r 0.819565185 _2_ RTR  --- 9 message 32 [0 ffffffff d 800] ------- [13:255 -1:255 32 0] 
r 0.819565222 _3_ RTR  --- 9 message 32 [0 ffffffff d 800] ------- [13:255 -1:255 32 0] 
s 0.852642458 _7_ RTR  --- 10 message 32 [0 0 0 0] ------- [7:255 -1:255 32 0] 
r 0.853542541 _3_ RTR  --- 10 message 32 [0 ffffffff 7 800] ------- [7:255 -1:255 32 0] 
r 0.853542541 _6_ RTR  --- 10 message 32 [0 ffffffff 7 800] ------- [7:255 -1:255 32 0] 
r 0.853542541 _11_ RTR  --- 10 message 32 [0 ffffffff 7 800] ------- [7:255 -1:255 32 0] 
r 0.853542576 _10_ RTR  --- 10 message 32 [0 ffffffff 7 800] ------- [7:255 -1:255 32 0] 
r 0.853542576 _2_ RTR  --- 10 message 32 [0 ffffffff 7 800] ------- [7:255 -1:255 32 0] 
r 0.853542625 _5_ RTR  --- 10 message 32 [0 ffffffff 7 800] ------- [7:255 -1:255 32 0] 
r 0.853542625 _15_ RTR  --- 10 message 32 [0 ffffffff 7 800] ------- [7:255 -1:255 32 0] 
r 0.853542644 _14_ RTR  --- 10 message 32 [0 ffffffff 7 800] ------- [7:255 -1:255 32 0] 
r 0.853542644 _9_ RTR  --- 10 message 32 [0 ffffffff 7 800] ------- [7:255 -1:255 32 0] 
r 0.853542644 _1_ RTR  --- 10 message 32 [0 ffffffff 7 800] ------- [7:255 -1:255 32 0] 
r 0.853542694 _13_ RTR  --- 10 message 32 [0 ffffffff 7 800] ------- [7:255 -1:255 32 0] 
r 0.853542708 _4_ RTR  --- 10 message 32 [0 ffffffff 7 800] ------- [7:255 -1:255 32 0] 
r 0.853542708 _19_ RTR  --- 10 message 32 [0 ffffffff 7 800] ------- [7:255 -1:255 32 0] 
r 0.853542722 _18_ RTR  --- 10 message 32 [0 ffffffff 7 800] ------- [7:255 -1:255 32 0] 
r 0.853542722 _8_ RTR  --- 10 message 32 [0 ffffffff 7 800] ------- [7:255 -1:255 32 0] 
r 0.853542722 _0_ RTR  --- 10 message 32 [0 ffffffff 7 800] ------- [7:255 -1:255 32 0] 
r 0.853542759 _17_ RTR  --- 10 message 32 [0 ffffffff 7 800] ------- [7:255 -1:255 32 0] 
r 0.853542759 _12_ RTR  --- 10 message 32 [0 ffffffff 7 800] ------- [7:255 -1:255 32 0] 
r 0.853542812 _16_ RTR  --- 10 message 32 [0 ffffffff 7 800] ------- [7:255 -1:255 32 0] 
s 0.940375874 _15_ RTR  --- 11 message 32 [0 0 0 0] ------- [15:255 -1:255 32 0] 
r 0.941535958 _11_ RTR  --- 11 message 32 [0 ffffffff f 800] ------- [15:255 -1:255 32 0] 
r 0.941535958 _14_ RTR  --- 11 message 32 [0 ffffffff f 800] ------- [15:255 -1:255 32 0] 
r 0.941535958 _19_ RTR  --- 11 message 32 [0 ffffffff f 800] ------- [15:255 -1:255 32 0] 
r 0.941535992 _18_ RTR  --- 11 message 32 [0 ffffffff f 800] ------- [15:255 -1:255 32 0] 
r 0.941535992 _10_ RTR  --- 11 message 32 [0 ffffffff f 800] ------- [15:255 -1:255 32 0] 
r 0.941536041 _7_ RTR  --- 11 message 32 [0 ffffffff f 800] ------- [15:255 -1:255 32 0] 
r 0.941536041 _13_ RTR  --- 11 message 32 [0 ffffffff f 800] ------- [15:255 -1:255 32 0] 
r 0.941536061 _6_ RTR  --- 11 message 32 [0 ffffffff f 800] ------- [15:255 -1:255 32 0] 
r 0.941536061 _17_ RTR  --- 11 message 32 [0 ffffffff f 800] ------- [15:255 -1:255 32 0] 
r 0.941536061 _9_ RTR  --- 11 message 32 [0 ffffffff f 800] ------- [15:255 -1:255 32 0] 
r 0.941536110 _5_ RTR  --- 11 message 32 [0 ffffffff f 800] ------- [15:255 -1:255 32 0] 
r 0.941536124 _3_ RTR  --- 11 message 32 [0 ffffffff f 800] ------- [15:255 -1:255 32 0] 
r 0.941536124 _12_ RTR  --- 11 message 32 [0 ffffffff f 800] ------- [15:255 -1:255 32 0] 
r 0.941536138 _2_ RTR  --- 11 message 32 [0 ffffffff f 800] ------- [15:255 -1:255 32 0] 
r 0.941536138 _16_ RTR  --- 11 message 32 [0 ffffffff f 800] ------- [15:255 -1:255 32 0] 
r 0.941536138 _8_ RTR  --- 11 message 32 [0 ffffffff f 800] ------- [15:255 -1:255 32 0] 
r 0.941536175 _1_ RTR  --- 11 message 32 [0 ffffffff f 800] ------- [15:255 -1:255 32 0] 
r 0.941536175 _4_ RTR  --- 11 message 32 [0 ffffffff f 800] ------- [15:255 -1:255 32 0] 
r 0.941536228 _0_ RTR  --- 11 message 32 [0 ffffffff f 800] ------- [15:255 -1:255 32 0] 
s 1.000000000 _0_ AGT  --- 12 tcp 40 [0 0 0 0] ------- [0:0 19:0 32 0] [0 0] 0 0
r 1.000000000 _0_ RTR  --- 12 tcp 40 [0 0 0 0] ------- [0:0 19:0 32 0] [0 0] 0 0
s 1.000000000 _0_ RTR  --- 12 tcp 60 [0 0 0 0] ------- [0:0 19:0 32 19] [0 0] 0 0
s 1.000000000 _1_ AGT  --- 13 tcp 40 [0 0 0 0] ------- [1:0 18:0 32 0] [0 0] 0 0
r 1.000000000 _1_ RTR  --- 13 tcp 40 [0 0 0 0] ------- [1:0 18:0 32 0] [0 0] 0 0
s 1.000000000 _2_ AGT  --- 14 tcp 40 [0 0 0 0] ------- [2:0 17:0 32 0] [0 0] 0 0
r 1.000000000 _2_ RTR  --- 14 tcp 40 [0 0 0 0] ------- [2:0 17:0 32 0] [0 0] 0 0
s 1.000000000 _3_ AGT  --- 15 tcp 40 [0 0 0 0] ------- [3:0 16:0 32 0] [0 0] 0 0
r 1.000000000 _3_ RTR  --- 15 tcp 40 [0 0 0 0] ------- [3:0 16:0 32 0] [0 0] 0 0
s 1.000000000 _4_ AGT  --- 16 tcp 40 [0 0 0 0] ------- [4:0 15:0 32 0] [0 0] 0 0
r 1.000000000 _4_ RTR  --- 16 tcp 40 [0 0 0 0] ------- [4:0 15:0 32 0] [0 0] 0 0
s 1.000000000 _4_ RTR  --- 16 tcp 60 [0 0 0 0] ------- [4:0 15:0 32 15] [0 0] 0 0
s 1.000000000 _5_ AGT  --- 17 tcp 40 [0 0 0 0] ------- [5:0 14:0 32 0] [0 0] 0 0
r 1.000000000 _5_ RTR  --- 17 tcp 40 [0 0 0 0] ------- [5:0 14:0 32 0] [0 0] 0 0
s 1.000000000 _6_ AGT  --- 18 tcp 40 [0 0 0 0] ------- [6:0 13:0 32 0] [0 0] 0 0
r 1.000000000 _6_ RTR  --- 18 tcp 40 [0 0 0 0] ------- [6:0 13:0 32 0] [0 0] 0 0
s 1.000000000 _6_ RTR  --- 18 tcp 60 [0 0 0 0] ------- [6:0 13:0 32 13] [0 0] 0 0
s 1.000000000 _7_ AGT  --- 19 tcp 40 [0 0 0 0] ------- [7:0 12:0 32 0] [0 0] 0 0
r 1.000000000 _7_ RTR  --- 19 tcp 40 [0 0 0 0] ------- [7:0 12:0 32 0] [0 0] 0 0
s 1.000000000 _7_ RTR  --- 19 tcp 60 [0 0 0 0] ------- [7:0 12:0 32 12] [0 0] 0 0
s 1.000000000 _8_ AGT  --- 20 tcp 40 [0 0 0 0] ------- [8:0 11:0 32 0] [0 0] 0 0
r 1.000000000 _8_ RTR  --- 20 tcp 40 [0 0 0 0] ------- [8:0 11:0 32 0] [0 0] 0 0
s 1.000000000 _8_ RTR  --- 20 tcp 60 [0 0 0 0] ------- [8:0 11:0 32 11] [0 0] 0 0
s 1.000000000 _9_ AGT  --- 21 tcp 40 [0 0 0 0] ------- [9:0 10:0 32 0] [0 0] 0 0
r 1.000000000 _9_ RTR  --- 21 tcp 40 [0 0 0 0] ------- [9:0 10:0 32 0] [0 0] 0 0
r 1.007586586 _15_ AGT  --- 16 tcp 60 [13a f 4 800] ------- [4:0 15:0 32 15] [0 0] 1 0
s 1.007586586 _15_ AGT  --- 22 ack 40 [0 0 0 0] ------- [15:0 4:0 32 0] [0 0] 0 0
r 1.007586586 _15_ RTR  --- 22 ack 40 [0 0 0 0] ------- [15:0 4:0 32 0] [0 0] 0 0
r 1.013528930 _11_ AGT  --- 20 tcp 60 [13a b 8 800] ------- [8:0 11:0 32 11] [0 0] 1 0
s 1.013528930 _11_ AGT  --- 23 ack 40 [0 0 0 0] ------- [11:0 8:0 32 0] [0 0] 0 0
r 1.013528930 _11_ RTR  --- 23 ack 40 [0 0 0 0] ------- [11:0 8:0 32 0] [0 0] 0 0
s 1.013528930 _11_ RTR  --- 23 ack 60 [0 0 0 0] ------- [11:0 8:0 32 8] [0 0] 0 0
r 1.015573680 _8_ AGT  --- 23 ack 60 [13a 8 b 800] ------- [11:0 8:0 32 8] [0 0] 1 0
s 1.015573680 _8_ AGT  --- 24 tcp 1040 [0 0 0 0] ------- [8:0 11:0 32 0] [1 0] 0 0
r 1.015573680 _8_ RTR  --- 24 tcp 1040 [0 0 0 0] ------- [8:0 11:0 32 0] [1 0] 0 0
s 1.015573680 _8_ RTR  --- 24 tcp 1060 [0 0 0 0] ------- [8:0 11:0 32 11] [1 0] 0 0
s 1.015573680 _8_ AGT  --- 25 tcp 1040 [0 0 0 0] ------- [8:0 11:0 32 0] [2 0] 0 0
r 1.015573680 _8_ RTR  --- 25 tcp 1040 [0 0 0 0] ------- [8:0 11:0 32 0] [2 0] 0 0
s 1.015573680 _8_ RTR  --- 25 tcp 1060 [0 0 0 0] ------- [8:0 11:0 32 11] [2 0] 0 0
r 1.017598425 _13_ AGT  --- 18 tcp 60 [13a d 6 800] ------- [6:0 13:0 32 13] [0 0] 1 0
s 1.017598425 _13_ AGT  --- 26 ack 40 [0 0 0 0] ------- [13:0 6:0 32 0] [0 0] 0 0
r 1.017598425 _13_ RTR  --- 26 ack 40 [0 0 0 0] ------- [13:0 6:0 32 0] [0 0] 0 0
r 1.027723293 _11_ AGT  --- 24 tcp 1060 [13a b 8 800] ------- [8:0 11:0 32 11] [1 0] 1 0
s 1.027723293 _11_ AGT  --- 27 ack 40 [0 0 0 0] ------- [11:0 8:0 32 0] [1 0] 0 0
r 1.027723293 _11_ RTR  --- 27 ack 40 [0 0 0 0] ------- [11:0 8:0 32 0] [1 0] 0 0
s 1.027723293 _11_ RTR  --- 27 ack 60 [0 0 0 0] ------- [11:0 8:0 32 8] [1 0] 0 0
r 1.038028293 _11_ AGT  --- 25 tcp 1060 [13a b 8 800] ------- [8:0 11:0 32 11] [2 0] 1 0
s 1.038028293 _11_ AGT  --- 29 ack 40 [0 0 0 0] ------- [11:0 8:0 32 0] [2 0] 0 0
r 1.038028293 _11_ RTR  --- 29 ack 40 [0 0 0 0] ------- [11:0 8:0 32 0] [2 0] 0 0
s 1.038028293 _11_ RTR  --- 29 ack 60 [0 0 0 0] ------- [11:0 8:0 32 8] [2 0] 0 0
s 1.039009780 _14_ RTR  --- 28 message 32 [0 0 0 0] ------- [14:255 -1:255 32 0] 
r 1.040053043 _8_ AGT  --- 27 ack 60 [13a 8 b 800] ------- [11:0 8:0 32 8] [1 0] 1 0
s 1.040053043 _8_ AGT  --- 30 tcp 1040 [0 0 0 0] ------- [8:0 11:0 32 0] [3 0] 0 0
r 1.040053043 _8_ RTR  --- 30 tcp 1040 [0 0 0 0] ------- [8:0 11:0 32 0] [3 0] 0 0
s 1.040053043 _8_ RTR  --- 30 tcp 1060 [0 0 0 0] ------- [8:0 11:0 32 11] [3 0] 0 0
s 1.040053043 _8_ AGT  --- 31 tcp 1040 [0 0 0 0] ------- [8:0 11:0 32 0] [4 0] 0 0
r 1.040053043 _8_ RTR  --- 31 tcp 1040 [0 0 0 0] ------- [8:0 11:0 32 0] [4 0] 0 0
s 1.040053043 _8_ RTR  --- 31 tcp 1060 [0 0 0 0] ------- [8:0 11:0 32 11] [4 0] 0 0
r 1.042058043 _8_ AGT  --- 29 ack 60 [13a 8 b 800] ------- [11:0 8:0 32 8] [2 0] 1 0
s 1.042058043 _8_ AGT  --- 32 tcp 1040 [0 0 0 0] ------- [8:0 11:0 32 0] [5 0] 0 0
r 1.042058043 _8_ RTR  --- 32 tcp 1040 [0 0 0 0] ------- [8:0 11:0 32 0] [5 0] 0 0
s 1.042058043 _8_ RTR  --- 32 tcp 1060 [0 0 0 0] ------- [8:0 11:0 32 11] [5 0] 0 0
s 1.042058043 _8_ AGT  --- 33 tcp 1040 [0 0 0 0] ------- [8:0 11:0 32 0] [6 0] 0 0
r 1.042058043 _8_ RTR  --- 33 tcp 1040 [0 0 0 0] ------- [8:0 11:0 32 0] [6 0] 0 0
s 1.042058043 _8_ RTR  --- 33 tcp 1060 [0 0 0 0] ------- [8:0 11:0 32 11] [6 0] 0 0
r 1.043282312 _10_ RTR  --- 28 message 32 [0 ffffffff e 800] ------- [14:255 -1:255 32 0] 
r 1.043282312 _13_ RTR  --- 28 message 32 [0 ffffffff e 800] ------- [14:255 -1:255 32 0] 
r 1.043282312 _18_ RTR  --- 28 message 32 [0 ffffffff e 800] ------- [14:255 -1:255 32 0] 
r 1.043282312 _15_ RTR  --- 28 message 32 [0 ffffffff e 800] ------- [14:255 -1:255 32 0] 
r 1.043282347 _17_ RTR  --- 28 message 32 [0 ffffffff e 800] ------- [14:255 -1:255 32 0] 
r 1.043282347 _9_ RTR  --- 28 message 32 [0 ffffffff e 800] ------- [14:255 -1:255 32 0] 
r 1.043282347 _11_ RTR  --- 28 message 32 [0 ffffffff e 800] ------- [14:255 -1:255 32 0] 
r 1.043282347 _19_ RTR  --- 28 message 32 [0 ffffffff e 800] ------- [14:255 -1:255 32 0] 
r 1.043282396 _6_ RTR  --- 28 message 32 [0 ffffffff e 800] ------- [14:255 -1:255 32 0] 
r 1.043282396 _12_ RTR  --- 28 message 32 [0 ffffffff e 800] ------- [14:255 -1:255 32 0] 
r 1.043282415 _5_ RTR  --- 28 message 32 [0 ffffffff e 800] ------- [14:255 -1:255 32 0] 
s 1.043282415 _5_ RTR  --- 17 tcp 80 [0 0 0 0] ------- [5:0 14:0 32 14] [0 0] 0 0
r 1.043282415 _16_ RTR  --- 28 message 32 [0 ffffffff e 800] ------- [14:255 -1:255 32 0] 
r 1.043282415 _8_ RTR  --- 28 message 32 [0 ffffffff e 800] ------- [14:255 -1:255 32 0] 
r 1.043282415 _7_ RTR  --- 28 message 32 [0 ffffffff e 800] ------- [14:255 -1:255 32 0] 
r 1.043282465 _4_ RTR  --- 28 message 32 [0 ffffffff e 800] ------- [14:255 -1:255 32 0] 
r 1.043282479 _2_ RTR  --- 28 message 32 [0 ffffffff e 800] ------- [14:255 -1:255 32 0] 
r 1.043282493 _1_ RTR  --- 28 message 32 [0 ffffffff e 800] ------- [14:255 -1:255 32 0] 
r 1.043282493 _3_ RTR  --- 28 message 32 [0 ffffffff e 800] ------- [14:255 -1:255 32 0] 
r 1.043282530 _0_ RTR  --- 28 message 32 [0 ffffffff e 800] ------- [14:255 -1:255 32 0] 
r 1.055570029 _11_ AGT  --- 30 tcp 1060 [13a b 8 800] ------- [8:0 11:0 32 11] [3 0] 1 0
s 1.055570029 _11_ AGT  --- 34 ack 40 [0 0 0 0] ------- [11:0 8:0 32 0] [3 0] 0 0
r 1.055570029 _11_ RTR  --- 34 ack 40 [0 0 0 0] ------- [11:0 8:0 32 0] [3 0] 0 0
s 1.055570029 _11_ RTR  --- 34 ack 60 [0 0 0 0] ------- [11:0 8:0 32 8] [3 0] 0 0
r 1.065575029 _11_ AGT  --- 31 tcp 1060 [13a b 8 800] ------- [8:0 11:0 32 11] [4 0] 1 0
s 1.065575029 _11_ AGT  --- 35 ack 40 [0 0 0 0] ------- [11:0 8:0 32 0] [4 0] 0 0
r 1.065575029 _11_ RTR  --- 35 ack 40 [0 0 0 0] ------- [11:0 8:0 32 0] [4 0] 0 0
s 1.065575029 _11_ RTR  --- 35 ack 60 [0 0 0 0] ------- [11:0 8:0 32 8] [4 0] 0 0
r 1.075580029 _11_ AGT  --- 32 tcp 1060 [13a b 8 800] ------- [8:0 11:0 32 11] [5 0] 1 0
s 1.075580029 _11_ AGT  --- 36 ack 40 [0 0 0 0] ------- [11:0 8:0 32 0] [5 0] 0 0
r 1.075580029 _11_ RTR  --- 36 ack 40 [0 0 0 0] ------- [11:0 8:0 32 0] [5 0] 0 0
s 1.075580029 _11_ RTR  --- 36 ack 60 [0 0 0 0] ------- [11:0 8:0 32 8] [5 0] 0 0
r 1.085625029 _11_ AGT  --- 33 tcp 1060 [13a b 8 800] ------- [8:0 11:0 32 11] [6 0] 1 0
s 1.085625029 _11_ AGT  --- 37 ack 40 [0 0 0 0] ------- [11:0 8:0 32 0] [6 0] 0 0
r 1.085625029 _11_ RTR  --- 37 ack 40 [0 0 0 0] ------- [11:0 8:0 32 0] [6 0] 0 0
s 1.085625029 _11_ RTR  --- 37 ack 60 [0 0 0 0] ------- [11:0 8:0 32 8] [6 0] 0 0
r 1.087929779 _8_ AGT  --- 34 ack 60 [13a 8 b 800] ------- [11:0 8:0 32 8] [3 0] 1 0
s 1.087929779 _8_ AGT  --- 38 tcp 1040 [0 0 0 0] ------- [8:0 11:0 32 0] [7 0] 0 0